1.185409999999999968e+02 3.160679999999999978e+01 1.170619999999999976e+02 1.176830000000000069e+02 3.058790000000000120e+01 1.157180000000000035e+02 1.172279999999999944e+02 3.044510000000000005e+01 1.174360000000000070e+02 1.188080000000000069e+02 2.990739999999999910e+01 1.168430000000000035e+02 1.180510000000000019e+02 3.065840000000000032e+01 1.167480000000000047e+02
1.241129999999999995e+02 1.240669999999999931e+02 1.321560000000000024e+01 1.244110000000000014e+02 1.230949999999999989e+02 1.180279999999999951e+01 1.244159999999999968e+02 1.222459999999999951e+02 1.328790000000000049e+01 1.257189999999999941e+02 1.232969999999999970e+02 1.289300000000000068e+01 1.246380000000000052e+02 1.231580000000000013e+02 1.278780000000000072e+01
1.251400000000000006e+02 9.623050000000000637e+01 4.858729999999999905e+01 1.237950000000000017e+02 9.704779999999999518e+01 4.779639999999999844e+01 1.239159999999999968e+02 9.669989999999999952e+01 4.957379999999999853e+01 1.236009999999999991e+02 9.530589999999999407e+01 4.842750000000000199e+01 1.240709999999999980e+02 9.627469999999999573e+01 4.855729999999999791e+01
1.050060000000000002e+02 1.470880000000000010e+01 2.708909999999999840e+01 1.042240000000000038e+02 1.629980000000000118e+01 2.718519999999999825e+01 1.039590000000000032e+02 1.514920000000000044e+01 2.844630000000000081e+01 1.031760000000000019e+02 1.485829999999999984e+01 2.681579999999999941e+01 1.040759999999999934e+02 1.523610000000000042e+01 2.737440000000000140e+01
