-1.102640798138145101e+03
-1.102525170498002581e+03
-1.102570921328234817e+03
-1.102667417883546705e+03
