-5.755450383514341128e-01 -2.947881089746134387e-01 -6.804251786437437444e-01 8.907237968527725869e-02 6.222018228347290236e-01 1.280766349308802010e-01 6.429419367320229894e-02 -3.611423220929848438e-02 -1.872832835141772373e-02 4.658858339520097758e-01 -7.556322663209068535e-01 2.392936708644998467e-01 -4.370736895905519975e-02 4.643328360921572528e-01 3.317832011997813857e-01
4.974577492528545197e-01 -1.201213119910607308e+00 -2.150146388614175841e-01 -7.838090910386945609e-01 -3.033089512437105451e-01 -3.280790897022254793e+00 -6.268435385996145026e-01 -7.001380853211306432e-01 6.014019050729599858e-01 -2.618535088856460691e-02 1.986117706674817573e-01 -5.134313460274980007e-02 9.393802312740192617e-01 2.006048385807966739e+00 2.945746765413461699e+00
9.300428065733979954e-01 -5.875360988441711285e-01 -6.088093053149922218e-01 -6.610882701237436043e-02 -8.233093121251067181e-01 5.327182208758435289e-01 -7.521898160137042710e-01 -3.110679241610784240e-01 -5.267535181589271254e-01 -6.686894801380942333e-02 -1.139302184798730334e-02 -8.188594006719078500e-02 -4.487516411144256562e-02 1.733306305556276072e+00 6.847304912431990687e-01
-5.434538115911460299e-01 7.295048166803205780e-02 -5.307842369180588993e-02 -9.207959361336026660e-02 8.223005654274237464e-02 -2.776382838285164634e-01 -2.829386648557062900e-01 -3.000162934190664377e-01 3.390211657294791014e-01 9.231282354260589296e-01 2.785195037988583144e-01 5.737230516566129701e-01 -4.656165365846363056e-03 -1.336836971684987885e-01 -5.820274584437021836e-01
