8.076489999999999725e+00 1.384360000000000035e+01 6.678860000000000241e+01 9.089066000000000756e+00 1.424702800000000025e+01 6.679448899999999867e+01 4.003049999999999997e+00 1.402110000000000056e+01 6.960360000000000014e+01 3.837860000000000049e+00 1.294340000000000046e+01 6.938849999999999341e+01
5.099969999999999715e+01 4.656689999999999685e+01 1.538030000000000008e+01 5.047361699999999729e+01 4.609354499999999888e+01 1.455128200000000049e+01 5.150829999999999842e+01 4.975229999999999819e+01 1.830730000000000146e+01 5.207549999999999812e+01 4.885880000000000223e+01 1.815889999999999915e+01
7.743680000000000518e+01 1.391680000000000064e+02 1.269989999999999952e+02 7.637120199999999670e+01 1.391048690000000079e+02 1.272194879999999984e+02 8.087120000000000175e+01 1.372690000000000055e+02 1.267710000000000008e+02 8.094670000000000698e+01 1.369319999999999879e+02 1.278209999999999980e+02
