-3.011192285562960478e+03
-3.011081250753107270e+03
-3.011194982238549073e+03
