4.562814721569122156e+00 1.817470191790600653e+00 2.569473294277298259e-02 -4.562316441735277728e+00 -1.817548713287637119e+00 -2.613804258648639092e-02 -1.319154465341903504e-01 -8.567167381245189839e-01 -1.705330078323713527e-01 1.314171667003447563e-01 8.567952596215551164e-01 1.709763688981522367e-01
-2.367218013018781431e+00 -2.132641031293547762e+00 -3.732177970516909138e+00 2.369324003792274258e+00 2.133898917908153336e+00 3.735124197872965013e+00 -3.466588597007040917e+00 5.465200477682784275e+00 9.103478976196277550e-01 3.464482657655615139e+00 -5.466458364297388961e+00 -9.132941249756838520e-01
-4.800555343151702736e+00 -2.844765446277207621e-01 9.916490145134103651e-01 4.801867942846103077e+00 2.840614656990518294e-01 -9.925527573493068134e-01 -4.748467976966367320e-03 9.956854925440995763e-03 -2.400644362339024798e-02 3.435868282565671290e-03 -9.541827418839568184e-03 2.491018645928667549e-02
