9.925779399999999697e+00 0.000000000000000000e+00 0.000000000000000000e+00 9.166280000000000261e-02 1.002296160000000036e+01 0.000000000000000000e+00 5.435389999999999666e-02 1.365232999999999863e-01 1.018812559999999934e+01
9.962471000000000743e+00 0.000000000000000000e+00 0.000000000000000000e+00 1.829971999999999988e-01 9.762013500000000121e+00 0.000000000000000000e+00 -2.644033000000000078e-01 7.393099999999999672e-02 9.952961999999999421e+00
1.020970349999999982e+01 0.000000000000000000e+00 0.000000000000000000e+00 7.213999999999999710e-05 1.001697060000000050e+01 0.000000000000000000e+00 6.541199999999999792e-02 -1.022525999999999990e-01 1.036240010000000034e+01
1.022900579999999948e+01 0.000000000000000000e+00 0.000000000000000000e+00 7.228000000000000592e-05 1.003590870000000024e+01 0.000000000000000000e+00 6.553570000000000229e-02 -1.024459000000000064e-01 1.038199039999999940e+01
1.050566770000000005e+01 0.000000000000000000e+00 0.000000000000000000e+00 7.422999999999999911e-05 1.030734729999999999e+01 0.000000000000000000e+00 6.730819999999999859e-02 -1.052166999999999963e-01 1.066279029999999928e+01
9.974589399999999273e+00 0.000000000000000000e+00 0.000000000000000000e+00 9.211360000000000381e-02 1.007224940000000046e+01 0.000000000000000000e+00 5.462120000000000170e-02 1.371945999999999999e-01 1.023822589999999977e+01
1.044491009999999953e+01 0.000000000000000000e+00 0.000000000000000000e+00 7.380000000000000492e-05 1.024773689999999959e+01 0.000000000000000000e+00 6.691900000000000626e-02 -1.046081999999999984e-01 1.060112379999999987e+01
9.968565999999999150e+00 0.000000000000000000e+00 0.000000000000000000e+00 1.831090999999999969e-01 9.767986300000000455e+00 0.000000000000000000e+00 -2.645650999999999975e-01 7.397629999999999484e-02 9.959052200000000354e+00
1.015973280000000045e+01 0.000000000000000000e+00 0.000000000000000000e+00 7.179000000000000214e-05 9.967944199999999810e+00 0.000000000000000000e+00 6.509189999999999421e-02 -1.017520999999999981e-01 1.031168180000000056e+01
1.012799839999999918e+01 0.000000000000000000e+00 0.000000000000000000e+00 1.860377000000000003e-01 9.924211599999999578e+00 0.000000000000000000e+00 -2.687963999999999909e-01 7.515940000000000121e-02 1.011833290000000041e+01
1.016092680000000037e+01 0.000000000000000000e+00 0.000000000000000000e+00 9.383439999999999837e-02 1.026041129999999946e+01 0.000000000000000000e+00 5.564159999999999939e-02 1.397576000000000096e-01 1.042948729999999991e+01
1.029448889999999928e+01 0.000000000000000000e+00 0.000000000000000000e+00 7.273999999999999813e-05 1.010015390000000046e+01 0.000000000000000000e+00 6.595520000000000549e-02 -1.031017000000000045e-01 1.044845199999999963e+01
9.960584600000000677e+00 0.000000000000000000e+00 0.000000000000000000e+00 1.829625000000000001e-01 9.760164299999999571e+00 0.000000000000000000e+00 -2.643532000000000104e-01 7.391699999999999660e-02 9.951077599999999634e+00
1.025772860000000009e+01 0.000000000000000000e+00 0.000000000000000000e+00 0.000000000000000000e+00 1.025772860000000009e+01 0.000000000000000000e+00 0.000000000000000000e+00 0.000000000000000000e+00 1.025772860000000009e+01
1.006554790000000033e+01 0.000000000000000000e+00 0.000000000000000000e+00 9.295349999999999446e-02 1.016409780000000040e+01 0.000000000000000000e+00 5.511930000000000301e-02 1.384457000000000049e-01 1.033158880000000046e+01
9.993496000000000379e+00 0.000000000000000000e+00 0.000000000000000000e+00 9.228820000000000079e-02 1.009134010000000004e+01 0.000000000000000000e+00 5.472470000000000112e-02 1.374547000000000130e-01 1.025763129999999990e+01
1.036638259999999967e+01 0.000000000000000000e+00 0.000000000000000000e+00 7.325000000000000510e-05 1.017069150000000022e+01 0.000000000000000000e+00 6.641579999999999706e-02 -1.038218000000000057e-01 1.052142150000000065e+01
1.024950119999999920e+01 0.000000000000000000e+00 0.000000000000000000e+00 7.242000000000000119e-05 1.005601790000000051e+01 0.000000000000000000e+00 6.566700000000000315e-02 -1.026511999999999980e-01 1.040279289999999968e+01
1.005129239999999946e+01 0.000000000000000000e+00 0.000000000000000000e+00 1.846287000000000067e-01 9.849048599999999709e+00 0.000000000000000000e+00 -2.667606000000000144e-01 7.459019999999999539e-02 1.004169940000000061e+01
1.009514809999999940e+01 0.000000000000000000e+00 0.000000000000000000e+00 9.322690000000000143e-02 1.019398789999999977e+01 0.000000000000000000e+00 5.528140000000000137e-02 1.388527999999999984e-01 1.036197089999999932e+01
1.031807330000000000e+01 0.000000000000000000e+00 0.000000000000000000e+00 7.291000000000000497e-05 1.012329390000000018e+01 0.000000000000000000e+00 6.610630000000000672e-02 -1.033378999999999964e-01 1.047238920000000029e+01
1.030492399999999975e+01 0.000000000000000000e+00 0.000000000000000000e+00 1.892876000000000003e-01 1.009757609999999950e+01 0.000000000000000000e+00 -2.734920000000000129e-01 7.647230000000000694e-02 1.029508880000000026e+01
9.983293599999999657e+00 0.000000000000000000e+00 0.000000000000000000e+00 1.833797000000000066e-01 9.782417300000000537e+00 0.000000000000000000e+00 -2.649559000000000220e-01 7.408549999999999858e-02 9.973763599999999840e+00
9.973482199999999409e+00 0.000000000000000000e+00 0.000000000000000000e+00 1.831994000000000122e-01 9.772802399999999778e+00 0.000000000000000000e+00 -2.646955999999999753e-01 7.401270000000000071e-02 9.963963599999999587e+00
