-2.389062871000000143e+01
-2.391125618999999958e+01
-2.386696531000000121e+01
-2.391532387999999898e+01
-2.386279163999999753e+01
-2.388032523000000040e+01
-2.394731532999999857e+01
-2.391439489999999779e+01
-2.388906327000000118e+01
-2.389961608000000126e+01
-2.392169942999999677e+01
-2.389622398999999930e+01
-2.388979574000000028e+01
-2.395297155999999816e+01
-2.387624260999999848e+01
-2.390435367999999983e+01
-2.392596634999999949e+01
-2.389874657000000013e+01
-2.394029079999999965e+01
-2.387562926000000374e+01
-2.383396280999999917e+01
-2.394107817000000082e+01
-2.387262541000000127e+01
-2.391280837000000048e+01
