5.151219999999999688e-01 4.602069999999999772e-01 -4.403449999999999864e-01 6.058430000000000204e-01 -6.666490000000000471e-01 -1.225000000000000047e-02 -7.064629999999999521e-01 -7.683710000000000262e-01 -2.510740000000000194e-01 -2.110769999999999869e-01 -1.237570000000000059e-01 5.213649999999999674e-01 -2.034259999999999957e-01 1.098570999999999964e+00 1.823039999999999938e-01
2.099250000000000005e-01 7.663000000000000367e-02 -9.093000000000000388e-03 -5.780450000000000310e-01 -1.316710000000000103e-01 3.098110000000000031e-01 -5.811700000000000199e-02 8.520029999999999548e-01 -5.031090000000000284e-01 1.722690000000000055e-01 2.944030000000000258e-01 -2.457979999999999887e-01 2.539680000000000271e-01 -1.091364999999999919e+00 4.481890000000000041e-01
1.007465999999999973e+00 -2.963470000000000271e-01 -1.695649999999999935e-01 -7.124559999999999782e-01 -3.207980000000000276e-01 5.660629999999999828e-01 -1.917810000000000070e-01 -2.086299999999999960e-02 4.938719999999999777e-01 1.319349000000000105e+00 -2.376530000000000031e-01 3.778489999999999904e-01 -1.422576999999999980e+00 8.756610000000000227e-01 -1.268218999999999985e+00
-5.126380000000000381e-01 2.670799999999999910e-02 -3.298840000000000106e-01 -3.015439999999999787e-01 -1.292135000000000034e+00 2.797629999999999839e-01 5.195220000000000393e-01 2.542960000000000220e-01 -2.285699999999999954e-01 2.509719999999999729e-01 -8.767999999999999752e-03 8.635709999999999775e-01 4.368799999999999767e-02 1.019898999999999889e+00 -5.848799999999999555e-01
-6.388260000000000050e-01 -7.227019999999999555e-01 -4.500879999999999881e-01 -1.299949999999999994e-01 -6.939999999999999988e-03 -5.839299999999999491e-01 -1.119092999999999893e+00 9.430000000000000448e-04 3.800879999999999814e-01 2.877299999999999858e-01 1.074648999999999965e+00 5.844840000000000035e-01 1.600184000000000051e+00 -3.459499999999999797e-01 6.944699999999999485e-02
-9.083400000000000363e-01 -6.084800000000000209e-01 -3.793290000000000273e-01 3.399860000000000104e-01 -6.888640000000000319e-01 4.156499999999999778e-02 -7.439919999999999867e-01 -5.119040000000000257e-01 -3.233500000000000263e-01 5.299449999999999994e-01 8.475999999999999160e-03 4.682129999999999903e-01 7.824010000000000131e-01 1.800772000000000039e+00 1.929019999999999901e-01
2.672359999999999736e-01 2.822439999999999949e-01 -5.790579999999999616e-01 -1.618209999999999926e-01 5.577769999999999673e-01 1.690089999999999926e-01 -2.045629999999999948e-01 -1.103370000000000045e-01 8.548010000000000330e-01 4.852759999999999851e-01 5.754359999999999475e-01 -3.970000000000000005e-04 -3.861280000000000268e-01 -1.305120000000000058e+00 -4.443550000000000000e-01
3.103580000000000227e-01 -6.359900000000000553e-01 5.530289999999999928e-01 -3.045200000000000129e-01 4.685099999999999681e-02 3.350440000000000085e-01 7.504399999999999959e-02 -1.052150000000000030e-01 -3.479280000000000150e-01 6.669070000000000276e-01 7.866299999999999681e-02 -4.353799999999999892e-01 -7.477880000000000082e-01 6.156920000000000170e-01 -1.047649999999999970e-01
8.016309999999999825e-01 -5.609530000000000349e-01 1.870100000000000096e-01 4.427400000000000224e-01 5.138979999999999659e-01 2.705549999999999899e-01 -2.839900000000000202e-01 1.274150000000000005e-01 4.149820000000000175e-01 7.511160000000000059e-01 -4.715389999999999859e-01 1.611029999999999962e-01 -1.711497000000000046e+00 3.911800000000000277e-01 -1.033651000000000098e+00
-5.984049999999999647e-01 7.712740000000000151e-01 1.307389999999999941e-01 -6.700399999999999412e-02 -2.360859999999999903e-01 -6.363099999999999312e-02 2.926369999999999805e-01 1.605159999999999920e-01 4.892420000000000102e-01 -3.640749999999999820e-01 7.822379999999999889e-01 -5.130909999999999638e-01 7.368460000000000010e-01 -1.477942000000000089e+00 -4.325899999999999884e-02
-5.813580000000000414e-01 -8.535329999999999862e-01 -4.198529999999999762e-01 -3.332879999999999732e-01 4.445529999999999760e-01 -4.005469999999999864e-01 1.141739999999999977e-01 -8.337600000000000566e-02 -1.483480000000000076e-01 -2.680060000000000220e-01 7.029680000000000373e-01 7.254859999999999642e-01 1.068478000000000039e+00 -2.106119999999999937e-01 2.432630000000000070e-01
-1.826319999999999888e-01 -1.961710000000000120e-01 4.522950000000000026e-01 6.829110000000000458e-01 -6.024399999999999755e-01 7.401900000000000146e-02 8.332140000000000102e-01 2.280210000000000015e-01 -2.014219999999999899e-01 -9.270410000000000039e-01 -5.144330000000000291e-01 2.621319999999999761e-01 -4.064530000000000087e-01 1.085021999999999931e+00 -5.870239999999999903e-01
1.854099999999999915e-01 -7.848260000000000236e-01 4.178239999999999732e-01 -2.719130000000000158e-01 -3.431190000000000073e-01 4.656460000000000043e-01 5.484160000000000146e-01 -1.161169999999999980e-01 -5.906379999999999963e-01 7.976739999999999942e-01 3.832519999999999816e-01 1.228709999999999941e-01 -1.259587000000000012e+00 8.608109999999999928e-01 -4.157029999999999892e-01
-4.943529999999999869e-01 5.787330000000000529e-01 1.051710000000000006e-01 5.715280000000000360e-01 -4.854200000000000181e-01 -3.311939999999999884e-01 -5.290839999999999987e-01 -3.161000000000000181e-03 -1.167335999999999929e+00 -1.295810000000000017e-01 6.758500000000000618e-02 -1.178919999999999968e-01 5.814899999999999514e-01 -1.577379999999999893e-01 1.511250999999999900e+00
3.781370000000000009e-01 -2.047350000000000003e-01 5.238629999999999676e-01 -3.960110000000000019e-01 8.814009999999999900e-01 -1.069360000000000033e-01 -4.377739999999999965e-01 -1.531490000000000073e-01 -7.847210000000000019e-01 -6.707159999999999789e-01 -5.684139999999999748e-01 5.169430000000000414e-01 1.126365000000000061e+00 4.489699999999999941e-02 -1.491490000000000038e-01
-6.454330000000000345e-01 -4.555029999999999912e-01 1.136139999999999928e+00 -6.841399999999999704e-01 -2.756620000000000181e-01 -2.613449999999999940e-01 3.713540000000000174e-01 2.102799999999999947e-01 -7.099849999999999772e-01 2.859780000000000100e-01 -8.407289999999999486e-01 -1.570580000000000032e-01 6.722409999999999775e-01 1.361614000000000102e+00 -7.752000000000000210e-03
4.174120000000000053e-01 -9.322500000000000231e-02 2.720870000000000233e-01 4.685270000000000268e-01 7.727619999999999489e-01 -1.372859999999999914e-01 4.645859999999999990e-01 2.704770000000000230e-01 1.621640000000000026e-01 -4.926929999999999921e-01 -8.203080000000000371e-01 8.678299999999999903e-02 -8.578310000000000102e-01 -1.297069999999999890e-01 -3.837470000000000048e-01
-1.836300000000000085e-02 1.079669999999999935e-01 -8.860800000000000620e-02 -1.214916000000000107e+00 -7.388590000000000435e-01 2.752350000000000074e-01 -4.472800000000000109e-01 -4.819530000000000203e-01 -1.645119999999999916e-01 2.358200000000000018e-01 1.663699999999999901e-01 -4.032819999999999738e-01 1.444738999999999995e+00 9.464740000000000375e-01 3.811669999999999781e-01
-4.397750000000000270e-01 6.931260000000000199e-01 1.336179999999999868e-01 -1.436379999999999879e-01 -1.000079999999999997e-01 2.254450000000000065e-01 1.031500000000000056e-01 1.407249999999999890e-01 -4.211130000000000151e-01 -5.047399999999999803e-02 4.382840000000000069e-01 -5.068219999999999947e-01 5.307389999999999608e-01 -1.172126999999999919e+00 5.688720000000000443e-01
-3.468510000000000204e-01 -4.418600000000000305e-02 -2.228150000000000130e-01 8.027060000000000306e-01 8.273999999999999411e-02 -7.374020000000000019e-01 -5.343149999999999844e-01 3.873389999999999889e-01 2.166009999999999880e-01 6.700509999999999522e-01 8.012899999999999467e-01 -3.681510000000000060e-01 -5.915909999999999780e-01 -1.227182999999999913e+00 1.111766999999999950e+00
2.003520000000000023e-01 2.485279999999999989e-01 4.642999999999999905e-01 -9.449030000000000484e-01 9.821900000000000075e-02 1.211590000000000028e-01 -3.481100000000000166e-02 -8.922259999999999636e-01 -1.653850000000000042e-01 -8.510600000000000387e-01 -1.076470000000000066e-01 -1.076009999999999911e+00 1.630422000000000038e+00 6.531259999999999843e-01 6.559359999999999635e-01
-9.090600000000000069e-02 -5.614890000000000159e-01 -4.057250000000000023e-01 -4.840849999999999875e-01 -5.461770000000000236e-01 -1.511160000000000003e-01 5.362599999999999589e-01 -3.230899999999999883e-01 1.579599999999999893e-01 3.526560000000000250e-01 -6.489599999999999536e-02 2.589999999999999941e-02 -3.139250000000000096e-01 1.495651999999999981e+00 3.729799999999999782e-01
2.618869999999999809e-01 -2.806790000000000118e-01 1.941529999999999923e-01 -5.751770000000000493e-01 2.287420000000000009e-01 -4.791279999999999983e-01 -1.007073000000000107e+00 6.725830000000000419e-01 -2.909899999999999987e-02 8.934659999999999824e-01 -4.938300000000000328e-02 -3.851970000000000116e-01 4.268959999999999977e-01 -5.712639999999999940e-01 6.992699999999999472e-01
3.354880000000000084e-01 1.975419999999999954e-01 3.822820000000000107e-01 5.747480000000000366e-01 6.821000000000000674e-02 4.254479999999999928e-01 -1.589510000000000089e-01 -8.145759999999999668e-01 -1.338219999999999965e-01 -8.324800000000000255e-02 -7.284580000000000499e-01 -3.741849999999999898e-01 -6.680369999999999919e-01 1.277282999999999946e+00 -2.997230000000000172e-01
