-1.644495745326261638e+00 -3.456712213679121737e-01 5.768884260091878824e-01 -3.456712213679121737e-01 -1.680554692383154691e+00 7.192916738188764869e-02 5.768884260091878824e-01 7.192916738188764869e-02 2.650561650897333421e-01
-1.449609878110330319e-01 -6.310943690838142217e-01 4.050980527369061335e-01 -6.310943690838142217e-01 -9.127635296758592753e-01 5.762854334919738086e-01 4.050980527369061335e-01 5.762854334919738086e-01 -8.233244005062054782e-01
1.426233428705823147e+00 2.325009644045328283e-02 -3.466347978527677953e-01 2.325009644045328283e-02 -1.155162514529956275e-01 8.853558675022418778e-02 -3.466347978527677953e-01 8.853558675022418778e-02 1.791481701912128188e-01
-3.717074067145165195e-01 7.528542014375569913e-01 6.510767179613852207e-01 7.528542014375569913e-01 7.878643488152775598e-01 -3.925551152179377890e-01 6.510767179613852207e-01 -3.925551152179377890e-01 4.321752458403012587e-01
4.915412237147816499e-01 7.035669267323160225e-01 -3.162044596984355249e-01 7.035669267323160225e-01 6.572356121277304064e-01 8.095041008319833198e-01 -3.162044596984355249e-01 8.095041008319833198e-01 4.075050109937072840e-01
7.095653571165004836e-01 5.110521579028011185e-01 6.983367598378666941e-01 5.110521579028011185e-01 -8.263325456647938605e-01 -2.035144174289493443e-03 6.983367598378666941e-01 -2.035144174289493443e-03 -5.473059760947712737e-02
-2.176389893634659012e-01 5.974626942436342958e-01 -3.166636760624870761e-01 5.974626942436342958e-01 -3.438101895622241999e-01 -2.095227418577663703e-01 -3.166636760624870761e-01 -2.095227418577663703e-01 7.408012867690493275e-01
-9.388865723557920928e-02 -6.467737439356364693e-01 4.062113161827825558e-01 -6.467737439356364693e-01 -5.600998040361361285e-01 2.818354831324301757e-01 4.062113161827825558e-01 2.818354831324301757e-01 -1.425343639462965939e+00
-1.833938541235453079e-01 -9.435361926177195935e-01 -1.384530579112959459e-01 -9.435361926177195935e-01 -1.509348083280484532e-01 2.333730640858955596e-01 -1.384530579112959459e-01 2.333730640858955596e-01 -4.328204469435975033e-01
-5.348530973674159306e-01 7.410018685094720281e-01 -5.022447925533486401e-01 7.410018685094720281e-01 -1.379589323313130222e+00 2.897102597397999482e-02 -5.022447925533486401e-01 2.897102597397999482e-02 -1.170336548902384255e+00
-1.031905500150028354e+00 -1.154871811813658888e-01 -9.596895768087139456e-02 -1.154871811813658888e-01 -1.399466732770676902e+00 -1.195808505040882430e+00 -9.596895768087139456e-02 -1.195808505040882430e+00 -4.763904525332126605e-01
-2.231941148466428881e+00 -5.212118676490121727e-01 4.190199329750580182e-01 -5.212118676490121727e-01 1.377566641039870421e-01 -7.320440391457266882e-02 4.190199329750580182e-01 -7.320440391457266882e-02 -8.390706253431624573e-01
-6.430777724412093388e-01 -7.594444770804945621e-01 5.724016058522743977e-01 -7.594444770804945621e-01 -1.246726769960421866e+00 7.631578707335108513e-02 5.724016058522743977e-01 7.631578707335108513e-02 -1.313357756701601486e+00
4.778230000770796182e-01 -5.256801108829696201e-01 2.033656867286324221e-01 -5.256801108829696201e-01 2.508858683482494967e-01 2.958394740844768056e-01 2.033656867286324221e-01 2.958394740844768056e-01 6.918661691348189091e-01
-7.943683102291254627e-01 3.104204221479756609e-01 8.980045437272166087e-01 3.104204221479756609e-01 7.723203234467483913e-01 -3.337087627554938263e-01 8.980045437272166087e-01 -3.337087627554938263e-01 4.866065742455369936e-01
1.510002248249545376e-01 -5.491197855998182220e-01 -8.876967492805648563e-01 -5.491197855998182220e-01 -8.267013109555297612e-02 -6.937666486301057311e-01 -8.876967492805648563e-01 -6.937666486301057311e-01 7.969235477511359411e-01
-1.236783078177165374e+00 -7.318617892139713810e-01 -1.881115697463865699e-01 -7.318617892139713810e-01 -1.745444541268763583e+00 2.652698535228336096e-01 -1.881115697463865699e-01 2.652698535228336096e-01 -6.002065507084600737e-01
5.194479219707809348e-01 7.049554494215197753e-01 -4.195267607997373860e-01 7.049554494215197753e-01 -1.560686065972818892e-01 -4.180344129032788625e-01 -4.195267607997373860e-01 -4.180344129032788625e-01 -4.623166204636662280e-01
-3.548217932569074362e-01 2.684228891212867008e-01 -4.147209223763953512e-01 2.684228891212867008e-01 -1.176129044801999424e+00 1.649428202724682879e-01 -4.147209223763953512e-01 1.649428202724682879e-01 2.512238389556234464e-01
7.257758597456881455e-01 -7.800391266604649043e-02 -6.877189839000360516e-01 -7.800391266604649043e-02 -1.201213692750097373e+00 -2.924547903001033511e-01 -6.877189839000360516e-01 -2.924547903001033511e-01 -2.574528794663433207e-01
-1.293315376771818848e+00 5.902294483702105188e-01 -9.124420652709169799e-01 5.902294483702105188e-01 -1.092671948723557218e+00 -6.875609026269198232e-01 -9.124420652709169799e-01 -6.875609026269198232e-01 -1.383847310958252974e+00
4.546773531326834261e-01 3.187127447768677846e-01 1.771383890235153635e-01 3.187127447768677846e-01 -4.321647765788511064e-01 3.874740317690386626e-01 1.771383890235153635e-01 3.874740317690386626e-01 -1.232273154888123279e-01
1.079143531709462867e+00 -7.253161180116525220e-01 -2.172391630594291967e-01 -7.253161180116525220e-01 -3.302391272246863463e-01 -3.539065948407020268e-01 -2.172391630594291967e-01 -3.539065948407020268e-01 1.046040359929078789e-01
-9.792524202217479934e-02 6.117130138212080182e-01 1.506793542489226201e-01 6.117130138212080182e-01 1.800478862011377357e-01 6.138163497515235489e-01 1.506793542489226201e-01 6.138163497515235489e-01 9.473077387360452628e-02
