LAMMPS (16 Mar 2018)
clear
units 	metal
dimension	3
boundary	p	p    p
atom_style	atomic
box         tilt large
read_data   conf.lmp
  triclinic box = (0 0 0) to (2.57003 7.71008 23.6247) with tilt (5.14006 16.7052 16.7052)
WARNING: Triclinic box skew is large (../domain.cpp:197)
  1 by 1 by 1 MPI processor grid
  reading atoms ...
  18 atoms
mass            1 1
neigh_modify    every 1 delay 0 check no
pair_style deepmd frozen_model.pb
pair_coeff
compute         mype all pe
thermo          100
thermo_style    custom step pe pxx pyy pzz pxy pxz pyz lx ly lz vol c_mype
dump            1 all custom 100 dump.relax id type xs ys zs fx fy fz
min_style       cg
minimize        1.000000e-12 1.000000e-06 5000 500000
WARNING: Using 'neigh_modify every 1 delay 0 check yes' setting during minimization (../min.cpp:168)
Neighbor list info ...
  update every 1 steps, delay 0 steps, check yes
  max neighbors/atom: 2000, page size: 100000
  master list distance cutoff = 10
  ghost atom cutoff = 10
  binsize = 5, bins = 5 5 5
  1 neighbor lists, perpetual/occasional/extra = 1 0 0
  (1) pair deepmd, perpetual
      attributes: , newton on
      pair build: full/bin/atomonly
      stencil: full/bin/3d
      bin: standard
Per MPI rank memory allocation (min/avg/max) = 5.192 | 5.192 | 5.192 Mbytes
Step PotEng Pxx Pyy Pzz Pxy Pxz Pyz Lx Ly Lz Volume c_mype 
       0   -63.403344   -15949.987   -16252.582   -8661.9535  0.025768162  0.082584415    138.54267    2.5700275     7.710081    23.624687    468.12601   -63.403344 
      22   -63.479077   -11661.846   -8975.5731   -0.0397479 0.0090833185   0.01374464 -0.074685389    2.5700275     7.710081    23.624687    468.12601   -63.479077 
Loop time of 2.12905 on 1 procs for 22 steps with 18 atoms

279.0% CPU use with 1 MPI tasks x no OpenMP threads

Minimization stats:
  Stopping criterion = energy tolerance
  Energy initial, next-to-last, final = 
         -63.403343568     -63.4790774183     -63.4790774183
  Force two-norm initial, final = 0.790701 6.91054e-06
  Force max component initial, final = 0.425665 2.46579e-06
  Final line search alpha, max atom move = 1 2.46579e-06
  Iterations, force evaluations = 22 44

MPI task timing breakdown:
Section |  min time  |  avg time  |  max time  |%varavg| %total
---------------------------------------------------------------
Pair    | 2.1276     | 2.1276     | 2.1276     |   0.0 | 99.93
Neigh   | 0          | 0          | 0          |   0.0 |  0.00
Comm    | 0.00068212 | 0.00068212 | 0.00068212 |   0.0 |  0.03
Output  | 0          | 0          | 0          |   0.0 |  0.00
Modify  | 0          | 0          | 0          |   0.0 |  0.00
Other   |            | 0.000802   |            |       |  0.04

Nlocal:    18 ave 18 max 18 min
Histogram: 1 0 0 0 0 0 0 0 0 0
Nghost:    1382 ave 1382 max 1382 min
Histogram: 1 0 0 0 0 0 0 0 0 0
Neighs:    0 ave 0 max 0 min
Histogram: 1 0 0 0 0 0 0 0 0 0

Total # of neighbors = 0
Ave neighs/atom = 0
Neighbor list builds = 0
Dangerous builds not checked
variable        N equal count(all)
variable        V equal vol
variable        E equal "c_mype"
variable        tmplx equal lx
variable        tmply equal ly
variable        Pxx equal pxx
variable        Pyy equal pyy
variable        Pzz equal pzz
variable        Pxy equal pxy
variable        Pxz equal pxz
variable        Pyz equal pyz
variable        Epa equal ${E}/${N}
variable        Epa equal -63.4790774182793/${N}
variable        Epa equal -63.4790774182793/18
variable        Vpa equal ${V}/${N}
variable        Vpa equal 468.126010817844/${N}
variable        Vpa equal 468.126010817844/18
variable        AA equal (${tmplx}*${tmply})
variable        AA equal (2.5700275354*${tmply})
variable        AA equal (2.5700275354*7.7100810287)
print "All done"
All done
print "Total number of atoms = ${N}"
Total number of atoms = 18
print "Final energy per atoms = ${Epa}"
Final energy per atoms = -3.52661541212663
print "Final volume per atoms = ${Vpa}"
Final volume per atoms = 26.0070006009913
print "Final Base area = ${AA}"
Final Base area = 19.8151205439242
print "Final Stress (xx yy zz xy xz yz) = ${Pxx} ${Pyy} ${Pzz} ${Pxy} ${Pxz} ${Pyz}"
Final Stress (xx yy zz xy xz yz) = -11661.8460073363 -8975.57310122177 -0.0397478999651642 0.00908331853730626 0.0137446400563164 -0.074685388576882
Total wall time: 0:00:04
