1.062069999999999936e+02 3.184550000000000214e+00 1.213679999999999950e+02 1.074860000000000042e+02 4.538429999999999964e+00 1.208070000000000022e+02 1.079050000000000011e+02 3.219879999999999853e+00 1.218850000000000051e+02 1.068990000000000009e+02 4.425939999999999763e+00 1.224599999999999937e+02 1.040949999999999989e+02 5.173090000000000188e+00 1.172560000000000002e+02 1.036318140000000056e+02 5.844426000000000343e+00 1.165329049999999995e+02 1.071089999999999947e+02 3.889540000000000219e+00 1.215870000000000033e+02
