1.456927451004389917e+00 1.603243184736717897e+00 -1.733246604535935986e-01 -4.274842453372293960e-01 5.699004894266253632e-03 -4.568979764660927034e-01 4.829948813985979750e-01 -3.230091566704308415e-01 -1.006003330383224287e-01 -6.080848198063182330e-01 1.204255506532844189e+00 1.316798769008745706e+00 -2.086552614922068560e+00 3.024585639450275476e+00 -3.257206834261114903e+00 2.086583005363947141e+00 -3.024510717497962631e+00 3.257278670889379502e+00 -9.043836577013187883e-01 -2.490263512867778140e+00 -5.860476871010689148e-01
