1.175469999999999970e+02 8.800249999999999773e+01 6.821309999999999718e+01 1.181410000000000053e+02 8.709799999999999898e+01 6.678189999999999316e+01 1.172999999999999972e+02 8.879869999999999663e+01 6.661780000000000257e+01 1.162480000000000047e+02 8.732760000000000389e+01 6.727930000000000632e+01 1.172669999999999959e+02 8.786209999999999809e+01 6.720470000000000255e+01 1.163209999999999980e+02 8.331220000000000425e+01 6.179220000000000113e+01 1.154899999999999949e+02 8.325490000000000634e+01 6.257070000000000221e+01 1.158629999999999995e+02 8.590370000000000061e+01 6.451940000000000452e+01 1.169759999999999991e+02 8.613100000000000023e+01 6.453379999999999939e+01
8.688060000000000116e+00 3.142289999999999850e+01 1.310200000000000102e+02 9.782349999999999213e+00 3.265970000000000084e+01 1.302940000000000111e+02 1.056269999999999953e+01 3.105730000000000146e+01 1.305920000000000130e+02 9.885529999999999262e+00 3.221119999999999806e+01 1.320819999999999936e+02 9.840970000000000439e+00 3.174080000000000013e+01 1.309970000000000141e+02 1.262729999999999997e+01 2.837809999999999988e+01 1.309879999999999995e+02 1.215910000000000046e+01 2.784600000000000009e+01 1.324579999999999984e+02 1.202219999999999978e+01 2.699830000000000041e+01 1.307259999999999991e+02 1.318219999999999992e+01 2.677039999999999864e+01 1.303069999999999879e+02
