-7.062713462289167182e+03
-7.051382209293273263e+03
