4.544178901517095248e-01 6.831315220550226996e-01 1.284233996429068103e+00 -2.503975412848610027e+00 1.868564443586764989e+00 8.212660562739350079e-01 -3.246251979850093283e-01 -5.385098883357021249e-01 3.170043447408829040e-01 1.517802231456618856e+00 9.081416852366235304e-01 -7.346429610846225700e-01 8.819373596051601760e-01 -2.853076332244798508e+00 -1.561154428195615118e+00 -3.469271132001078062e+00 -2.420354440802700846e-01 3.242486804647409127e+00 3.466615542170397912e+00 2.252087552061943498e-01 -3.255328540402406823e+00 4.172817986175214600e+00 8.611982741492156812e-01 4.685357673552673075e-02 -4.195719318146471366e+00 -9.126229641509828738e-01 -1.607187977221096742e-01
2.614758446532729597e+00 -1.870049358629279068e-01 -4.597881537685996056e-01 3.671624577986407068e-01 -1.314700440123306668e+00 1.000021298429568439e+00 2.390120322009319787e-01 -6.119712996661790250e-01 5.234030619304396170e-01 9.603400202435721233e-01 -1.325353344154107216e+00 -2.098017010599713128e+00 -4.176875958630108521e+00 3.432387265707861346e+00 1.036974584513878028e+00 -9.011374340036056863e-01 -1.558977834923477079e+00 7.552160252535130347e+00 2.260146418476833396e+00 3.631320218608800943e+00 -5.862190048610730564e+00 2.830026699030940396e+00 -3.861745948248737736e+00 -3.129322466440528583e+00 -4.193432733072000929e+00 1.796046267240006378e+00 1.436758482010555449e+00
