-2.201425408172393873e+03
-2.203411217095649590e+03
-2.202965063136084609e+03
-2.202847624012190408e+03
-2.203335301605653058e+03
-2.202478369367570849e+03
-2.204188800800824083e+03
-2.200740104161081490e+03
-2.202797778257451682e+03
-2.202394906391428322e+03
-2.204128467130194622e+03
-2.203177940036578093e+03
-2.202984011333187937e+03
-2.201425331169613401e+03
-2.200382851950081658e+03
