-7.655851103250846945e-01 2.789185801801285169e+00 -1.076641670209250723e+00 1.045887365781279721e+00 1.530032867361728055e+00 1.788325295230503709e-01 -1.807851642647086532e+00 1.183714241770480902e+00 3.295202857029709609e+00 -1.883707008328923571e+00 2.517580200662889456e-01 -4.788802418253447768e-01 -1.378637661804088310e+00 -1.052820808827382715e+00 -1.111659738206156378e+00 4.847516649118592258e-01 -1.203704570501902715e+00 7.016807473454204080e-01 -2.169038187718100641e+00 1.745796160103533445e+00 -1.326734643730656416e+00 -4.881821338773398855e-01 -8.631214594728302270e-02 -2.159288717990791862e-01 1.210962332527578900e+00 -7.188875944221418735e+00 -4.157670484914578246e+00 5.751400330057838239e+00 2.031226429816737511e+00 4.191799465364818289e+00
2.915999459332879518e+00 -2.826632482623030462e-01 3.284167012862412305e-01 -1.009726288068510391e-01 -3.967565261181435488e-01 1.214611293857766450e+00 -2.361747064993772849e+00 2.222100773413124286e-01 5.573619381814678420e-01 -6.688230746693976103e-01 6.320383501222752720e-01 -7.112428916231198883e+00 6.058075935481291863e-01 2.012184632541984097e+00 1.439323723268679245e-01 1.369310161562490080e+00 -1.547844700204515256e+00 -1.586834865803629757e+00 -3.806527698063039367e+00 -7.676169504772767382e-01 1.969420549988714741e+00 6.266655154020114304e-01 -2.834735057795275126e-01 2.220506689321357641e-01 3.062065333239340492e-01 -1.947929622484198889e-02 5.270086898843649337e+00 1.114081254785683983e+00 4.314011670610360394e-01 -1.006616641382014565e+00
1.695103257544021969e-01 3.620507443370216127e-01 1.875623922120252418e+00 -3.817492014134477030e-01 -5.782909253326025123e-01 8.550432069385017764e-01 1.240513823375211100e+00 -7.276139758371485966e-01 1.460238723617460321e+00 -2.668368214447768352e-02 -8.857212010183380668e-01 2.379338040056749204e+00 3.741029970900554003e-01 -1.345980278080886050e+00 3.216109135226483229e+00 -2.287592587037849956e+00 3.689795079749841888e-01 4.265728920353464293e-01 4.723764815750740587e-01 -5.611140881744601572e+00 -9.306496383916862403e-01 2.546772045570592002e+00 8.327739550206644248e-01 -1.546396294829909535e-01 -1.903304421042758765e+00 1.348913701342140392e+00 -7.348178166828690294e+00 -2.039458331488685217e-01 6.236029353338766512e+00 -1.779458382447290710e+00
-2.119212415482442380e-01 -1.209580724418624943e-02 -6.308653613410728500e-01 1.334187295392067707e+00 2.820816646791458049e-01 1.726482545780100297e-01 2.618772658808201648e-01 5.941354527178803746e-01 -1.906419929844946903e+00 1.104874133604047959e+00 1.278501310080604858e+00 -1.164444490470605137e-01 -6.284144827610161910e-01 2.636931127807846664e+00 -2.534388531858876026e-01 6.158004439208035752e-01 1.000179267020855634e-01 3.613692065391038266e+00 -2.460186591334672102e+00 6.313604530067349341e-01 -1.159223196583194060e+00 3.903895485673598009e-01 -2.645859747072030754e-01 2.062966186745824881e+00 -2.507506720488411833e+00 -2.111486764064799182e+00 2.397685485154369633e+00 2.100900348767245518e+00 -3.134859440400176833e+00 -4.180600201867081367e+00
-1.412974078874527750e+00 -5.704681890515639342e-01 7.473206090223033504e-01 3.105383797102072130e+00 8.700570622457671766e-01 2.285164642699887949e+00 2.079525583713158987e+00 -1.633627250278859577e+00 -1.227944213201298096e+00 -1.579708075783815557e+00 3.021862275334661785e+00 -4.307468623900538418e+00 -5.637737557750909234e-01 2.231721945082079550e+00 3.001015512069422075e-01 7.932527537307219045e-01 3.468845254438239489e-02 -1.709241909262839920e+00 -1.401056706204484525e+00 -5.628699615171270931e-01 1.530805072549019874e+00 1.112415848286328446e+00 1.822116484119491675e+00 -5.696848252756295805e-01 -2.512344817128989494e+00 -1.601860702452617025e+00 2.954794683874191197e+00 3.792794509346272269e-01 -3.611620116026215133e+00 -3.847090556173850522e-03
1.862623652131224938e+00 1.071115083507232724e+00 1.430899554486437797e+00 -8.168376906670087312e-01 -1.558530874312972873e-02 2.442254687964327875e+00 -7.697156187483610523e+00 1.577500680693259438e+00 4.320219548284373268e+00 -7.694057699385757620e-02 -2.246248987676546793e+00 8.334634735234544012e-01 -1.225189275936253930e+00 -5.890909478984527325e-01 -1.642586928471799768e-01 -3.397723392911732865e-01 -3.097808812342134344e-01 -1.981851012048036820e+00 1.358230094417163691e+00 -1.291671170048169115e+00 -1.409911740490110255e+00 9.743450260090192883e-01 8.796917579184688751e-01 -1.779602158547954449e+00 6.816970520607031681e+00 1.387678998240180761e-01 -1.013600478054244114e+01 -8.562731713704681002e-01 7.853018736575323455e-01 6.444791223061265839e+00
1.306886702704076683e-02 -9.751773435931911926e-01 1.310838848544104485e+00 -7.551099209594823447e-02 -2.309169132284714099e-01 4.548769349480706325e-01 -6.995919315424645735e-01 2.531973391615715219e+00 -1.527827374887668288e+00 5.336390358381420951e-01 -7.603558460172147315e-01 1.102920660682689791e+00 -7.449754027909105680e-01 1.392028122441126170e+00 -5.170442604883846577e-02 -1.514229529052498524e+00 1.505803817608232897e+00 -1.368722561597438103e+00 1.125501170374961557e+00 -1.456420069464601008e+00 9.302780111100347193e-01 -1.337041271559071376e+00 1.942197090401938109e-01 3.469783707169682430e-01 2.851286278653880069e-01 -6.248899628341213486e-01 -1.290322934861007242e+00 2.414011323091225680e+00 -1.576264956989735788e+00 9.268447139308429172e-02
-2.561877946378640303e+00 1.590045762540986507e+00 1.614884266638211052e+00 1.897723172683013215e-01 -8.920340825541367424e-01 3.806506717859509670e-01 2.420483510192066312e-01 -1.104955843269267851e-01 -3.105000034212496374e+00 2.573789662621260854e-01 -7.467537321504443826e-01 -1.202588300261126619e+00 -1.330998664409928312e+00 -5.072216171590568923e-01 1.577600285237960920e+00 -3.130622107773925134e+00 -1.256138264311690567e-01 3.112290912049627156e+00 -1.903499156412291393e+00 -1.644864874638933383e+00 3.384387233977949716e+00 -1.448591676756139979e+00 1.998456894564369035e+00 1.428267618806796868e+00 2.922683093975182889e+00 8.864712432945477394e-01 5.055998011463008091e+00 6.763706771784041116e+00 -4.479902345613036574e-01 -1.224649056264174618e+01
-6.475820584128166857e-01 -3.038552592885790382e-01 3.776055597941379016e-01 -5.078260835622411262e-01 1.244580640425711593e+00 -1.006479344461852721e+00 3.705681156165640644e+00 -2.469579191913695571e+00 -1.292963869402456556e+00 -1.660636074155990016e-01 7.986852894713257767e-01 1.167149034109522310e+00 -6.569907026768926350e-01 5.002588121124249554e-01 -3.917191689660951548e-01 -1.310384534577951232e+00 -4.268564230309974228e+00 5.705689865882310308e+00 -9.645390434295538773e-01 -1.192469003024527963e+00 9.203399252392227003e-01 4.836127175393260536e-01 1.805402306729054107e+00 1.944062683009978960e-03 -2.049627662396938721e+00 8.392791036667569537e-01 -3.179313303512785738e-01 2.113719870189093797e+00 3.046261583553571128e+00 -5.163634734526520553e+00
2.550031279051376831e+00 2.114812229168493152e-01 9.700718007796692577e-01 -7.401233707700469733e-01 -1.718958468866964018e-01 -2.292364503477585469e+00 -1.037187060496690405e+00 1.397693137348790415e+00 -2.028092254804055194e+00 1.639021836533665732e+00 -1.131303276514517897e+00 1.842869967754329208e+00 -1.697167802131128722e+00 -3.162123420576125055e-01 -1.622631463902126869e+00 3.803457954900905325e+00 4.837102137792611778e+00 5.023748867533499585e+00 -1.421244238564677964e+00 2.210077368439944401e+00 9.560177383618495561e-01 -1.505402982592254801e+00 7.255081393298581371e-01 7.290561077195221173e-01 -1.996897623212284589e+00 -3.081917336609250602e-01 1.480618214555542878e+00 4.055120072811350673e-01 -7.454258858130370591e+00 -5.059294474520644513e+00
-8.627925125071841395e-01 -9.510704212499522248e-01 5.930579032939138628e-02 6.386820298181491440e-01 -6.200658015738298445e-01 2.950695419499113625e-01 1.568373315138279045e+00 -3.106375214563015796e-01 1.123347305656648087e+00 -2.177467704395359860e+00 -8.649135699464476357e-01 -1.060844913924658517e+00 6.405129639527112895e-01 7.996920307083773549e-01 -1.231255640080571034e-01 7.716044746997284820e-01 -4.852111210847602218e-01 3.058117146898507999e-01 5.856324024841300657e-01 -9.583839762188400835e-01 3.655253797162576479e+00 8.772321375869414073e-01 1.537378921077260818e+00 -2.062821947846553775e-02 7.894123480433199447e-01 2.715287508585530141e+00 -4.490767314250109221e-01 -2.831189403398647997e+00 -8.620759459969015159e-01 -3.785112669530119156e+00
9.039215275809089345e-01 3.217330666439383591e-01 2.212430750780066013e+00 -5.223354883875636068e-01 -8.816077441526368741e-01 2.590789952395136542e+00 1.406920107448472457e-01 -1.351963955540701035e+00 2.549331013336483931e+00 -3.119519209230639523e-01 -2.964407782278553061e+00 9.269638074391179927e-01 5.762094114632283492e-01 -3.219341269277707918e-01 -1.302490578733457971e+00 -4.742183171879411074e-01 -8.867264510154327928e-01 -2.077943223852777521e+00 -1.467887499044226329e+00 7.893148518033848982e-01 2.393648904279545575e-01 -2.080583387063214218e+00 -8.527635124210738993e-02 2.287899319670346543e+00 -2.686164877780649607e-01 4.734149913654125186e+00 -7.912698828133875040e+00 3.504770150595090339e+00 6.467185790557542502e-01 4.863528452489370713e-01
-1.488679909184143835e+00 -2.604822983187358609e+00 -1.980306447407250703e+00 1.709608600026013558e+00 4.730274900915311775e+00 -2.803366311083029583e+00 3.912738332929231788e+00 -3.468921821896711943e+00 4.249806745646297124e+00 2.066986312559056405e+00 -9.536281548862246549e-01 -2.721554418793004526e+00 -3.090060020994127021e-01 -1.924069268954508860e-01 2.905985474490472287e-01 1.707110875942486228e+00 1.748085573391714442e+00 1.028425100153196547e+00 6.399647172958989216e+00 -1.486781200764647926e+00 -1.425800336587215389e+00 1.070766339045608140e+00 -2.092907559709062948e+00 1.392534167007160706e+00 -5.908229716862241965e+00 2.186116741878675551e+00 2.210824891034847806e+00 -9.160942005315588332e+00 2.134991276887553191e+00 -2.411619374200497101e-01
7.115450425494039832e-01 7.383220557463512357e-01 9.126669300186751599e-01 1.214964254928923904e+00 -1.874654976102795745e+00 -1.094326644811574045e+00 2.976009474876359362e-01 -9.850997457334230434e-02 1.048290781793055765e-01 7.285600390345779998e-01 -8.337504600820397904e-01 -3.203257989233136982e-01 3.745367936512856710e-01 -1.230192334569295776e+00 2.629347606984708263e-01 -1.011164100497215834e+00 1.520006438378991520e+00 -1.307876937457468136e+00 -1.929641569874513518e+00 8.246752365034804022e-02 4.494578717891454800e-01 -7.275493897203982874e-01 1.903164655863358146e+00 6.253039104773058243e-01 -5.172026301717981944e+00 4.376073992288888270e+00 3.454311321286730463e-01 5.513174284158282035e+00 -4.582926972022531409e+00 2.190569790077990728e-02
-7.950150908272705097e-01 -9.188363954082823248e-01 7.534414805581455266e-01 -2.553545206032371340e+00 4.761186351181489584e+00 -2.490380806603691433e+00 -5.517362611554228469e-01 -1.772717103667347027e+00 5.257398863648337972e+00 -1.060698001077878594e+00 -1.106585100055187842e+00 -2.523260642190796599e+00 2.651708081650248516e+00 -2.306487728576160912e+00 1.092769173231850965e+00 5.841313409124285760e-01 -5.427872787525178655e-01 -2.695433705443258110e-01 -1.786158883527725783e+00 -5.950911832639953492e-01 2.174990034918148130e+00 -2.276853036823351939e+00 1.068413830880633908e+00 -1.728803275107374304e+00 5.364727722793870335e+00 -9.122063939823571443e-01 8.635547418133857622e-01 4.234393855095416326e-01 2.325110950221656925e+00 -3.130166148301612772e+00
