# ch4+n2

3500 atoms
3 atom types

0 140.000 xlo xhi
0 140.000 ylo yhi
0 140.000 zlo zhi

Masses

1 1.00797
2 12.011
3 14.00674

Atoms   # metal

1              2        99.33793000      60.96209000      85.82893800
2              1        99.08148300      60.07093000      85.24420800
3              1        98.64211600      61.77291500      85.58348700
4              1       100.36138600      61.27394000      85.58992600
5              1        99.26673500      60.73057500      86.89813000
6              2       122.34568900      11.40509700      41.61478100
7              1       122.59689100      10.85070100      40.70298000
8              1       121.90272300      12.37089900      41.34487900
9              1       123.25543400      11.57201800      42.20328800
10             1       121.62770900      10.82677100      42.20797800
11             2        88.83658500      78.55313800     118.17610900
12             1        88.05773900      78.30733100     117.44479700
13             1        88.39245200      79.10918400     119.01001300
14             1        89.60738200      79.16766700     117.69645800
15             1        89.28876700      77.62836900     118.55316700
16             2        19.90023200      26.29987100     132.45614500
17             1        19.76492000      27.26095400     131.94639000
18             1        19.03222400      25.65858800     132.26338400
19             1        19.99730600      26.46890400     133.53496100
20             1        20.80647800      25.81104000     132.07984600
21             2       125.16876200      37.61279000      46.20195600
22             1       124.29922400      38.27099500      46.31379700
23             1       125.08605400      37.05458800      45.26205700
24             1       125.20549500      36.90986100      47.04242000
25             1       126.08427600      38.21571600      46.18954800
26             2       135.16610500      74.96405500      88.35643500
27             1       134.40302000      74.78748900      89.12348400
28             1       136.16203100      74.89964600      88.81011000
29             1       135.02543300      75.96149600      87.92381200
30             1       135.07393500      74.20759000      87.56833300
31             2        62.45604000     137.05308700      38.04406000
32             1        62.32354100     137.74313200      38.88556000
33             1        63.50556900     136.74115800      37.98903100
34             1        62.17488500     137.55594900      37.11136500
35             1        61.82016500     136.17211000      38.19028400
36             2        15.62647100      74.29851800     108.76153300
37             1        14.54584500      74.32308300     108.57854800
38             1        16.15979300      74.31804100     107.80391900
39             1        15.88436200      73.38190900     109.30481800
40             1        15.91588400      75.17104100     109.35884800
41             2        65.08639100     127.26582200       7.27043300
42             1        65.27706500     126.36772100       6.67135200
43             1        64.12327100     127.16466700       7.78425000
44             1        65.06020500     128.14385400       6.61452700
45             1        65.88502100     127.38704500       8.01160300
46             2        37.50910200     126.99758500      28.48024800
47             1        36.81738900     126.80415100      29.30847200
48             1        37.84675300     128.03974300      28.52194300
49             1        36.99791200     126.81692100      27.52741900
50             1        38.37435400     126.32952600      28.56315800
51             2       117.38567700       8.07057300     115.99005700
52             1       117.03502600       9.09517900     115.81956800
53             1       118.46827400       8.02247900     115.82419300
54             1       116.87897700       7.39056900     115.29529900
55             1       117.16043200       7.77406600     117.02116600
56             2       101.86159300      64.04428500     101.76001700
57             1       101.81548000      64.98885100     101.20548200
58             1       102.30128900      63.26776800     101.12320500
59             1       100.84946800      63.74444900     102.05588700
60             1       102.48013600      64.17607200     102.65549200
61             2        14.62363600      83.56574200      28.00197100
62             1        14.75756200      83.76934800      26.93311800
63             1        15.46288400      82.96218200      28.36696200
64             1        13.68613600      83.01848000      28.15506200
65             1        14.58796400      84.51295700      28.55274300
66             2        83.87241500      87.02046200     124.45940300
67             1        84.51875000      86.44013100     125.12821300
68             1        83.09951700      87.52836700     125.04804500
69             1        83.39749500      86.34777500     123.73567500
70             1        84.47390000      87.76557500     123.92567700
71             2        90.50001900     126.74058900      15.19972900
72             1        90.31648000     125.74183500      15.61281900
73             1        89.68534300     127.41285200      15.49333900
74             1        90.54809700     126.68055600      14.10614700
75             1        91.45015400     127.12711500      15.58661400
76             2        51.42404300      48.17958800      69.93454900
77             1        52.29821600      47.81439900      69.38291600
78             1        51.73163500      48.49789400      70.93749800
79             1        50.68253300      47.37638700      70.01743800
80             1        50.98378900      49.02967000      69.40034300
81             2         5.71170100      86.96980300      26.44375300
82             1         4.63481200      86.82249400      26.30075100
83             1         5.89834800      87.99537000      26.78318500
84             1         6.23317600      86.79834500      25.49480400
85             1         6.08046600      86.26300200      27.19627100
86             2        63.52418700      72.43205500      46.36703900
87             1        62.66467400      72.76789000      45.77518600
88             1        64.38389400      72.27359400      45.70550100
89             1        63.27449900      71.49224300      46.87325000
90             1        63.77368200      73.19449300      47.11422100
91             2       113.43345600      93.33300100      66.18828000
92             1       113.59226700      92.43291500      65.58291900
93             1       113.23094200      94.18548000      65.52941200
94             1       114.33145300      93.53630800      66.78334900
95             1       112.57916000      93.17730100      66.85744100
96             2        24.44986300      68.66708400      68.72043200
97             1        24.62568000      69.71863700      68.46515900
98             1        24.93830400      68.02437900      67.97868100
99             1        23.37196400      68.46718400      68.72393600
100            1        24.86350400      68.45813600      69.71395100
101            2        33.22205300     119.95410800      87.09818500
102            1        32.94213900     120.87153200      87.62905400
103            1        33.42207500     119.15798700      87.82483500
104            1        34.12249200     120.13801800      86.50050200
105            1        32.40150400     119.64889600      86.43834800
106            2        35.40584200     105.91951000     123.00536700
107            1        35.10186200     104.87051200     122.91029400
108            1        35.51900700     106.17248600     124.06604400
109            1        34.64129700     106.56372600     122.55559300
110            1        36.36120200     106.07131600     122.48953500
111            2         5.87851500      81.73685900       2.45768000
112            1         4.98936300      81.97454700       3.05329000
113            1         6.75280600      81.67247900       3.11594200
114            1         6.03983500      82.52393100       1.71180300
115            1         5.73205500      80.77647900       1.94968500
116            2        42.38693100     126.75108300      38.63554600
117            1        41.63183100     127.05181100      37.89986500
118            1        43.31750500     127.29988000      38.44928900
119            1        42.57388500     125.67440400      38.54808500
120            1        42.02450100     126.97823800      39.64494400
121            2        97.04531800       7.04165300      23.39800100
122            1        96.53839200       6.11221600      23.68262500
123            1        97.44240100       6.94460000      22.38077700
124            1        97.86893000       7.23682900      24.09471400
125            1        96.33154900       7.87296800      23.43388900
126            2        45.62992300      18.26771100     103.93921700
127            1        45.54935200      18.27419400     102.84591600
128            1        46.08681500      19.20506500     104.27753000
129            1        46.25305900      17.42272200     104.25470900
130            1        44.63046700      18.16886100     104.37871100
131            2        15.45304200      70.12202300     114.42355600
132            1        16.10262700      70.57494500     113.66544000
133            1        15.41499500      69.03704600     114.27118900
134            1        14.44298100      70.53902400     114.33565600
135            1        15.85156500      70.33707800     115.42194000
136            2       117.16408900     117.19103900       4.10078700
137            1       116.84194500     116.21688400       4.48690200
138            1       117.41664900     117.85097900       4.93895800
139            1       116.35257600     117.63848100       3.51505600
140            1       118.04518800     117.05781100       3.46223000
141            2        68.55597700      49.14281000      21.29463300
142            1        68.95787500      49.65091700      20.41024400
143            1        68.81972600      49.71133500      22.19410700
144            1        68.98138200      48.13465900      21.36172300
145            1        67.46492400      49.07432800      21.21245700
146            2        37.00102800      68.41003600     133.93936200
147            1        36.15513900      67.84643800     134.35005400
148            1        37.38384300      69.10053600     134.69995400
149            1        36.66991300      68.97902700     133.06274800
150            1        37.79521900      67.71414100     133.64468900
151            2        17.68265000     106.86439600      91.30896700
152            1        17.29872300     107.46295700      90.47460200
153            1        18.77798200     106.84210000      91.26910500
154            1        17.29340200     105.84222100      91.23492500
155            1        17.36049100     107.31030800      92.25723700
156            2       107.49524800     112.39469800     121.53531700
157            1       106.61522900     112.48327700     120.88758400
158            1       108.39852500     112.32881300     120.91758700
159            1       107.40668200     111.49172200     122.15064500
160            1       107.56055800     113.27498100     122.18545100
161            2        75.04308400      46.69288400      41.57309100
162            1        75.79045500      47.31039100      42.08491300
163            1        74.29835500      46.34445000      42.29821900
164            1        75.53636700      45.82912500      41.11218700
165            1        74.54716100      47.28757000      40.79704500
166            2       105.09740600     105.05348900     137.58839100
167            1       104.30048700     105.43683900     138.23631300
168            1       105.91591300     104.66587100     138.20615800
169            1       105.47208800     105.86347100     136.95169600
170            1       104.70113400     104.24777400     136.95939800
171            2        63.00023000      76.40949700      64.83282700
172            1        63.23882700      75.84516800      63.92373700
173            1        63.92780100      76.76711100      65.29495600
174            1        62.46794800      75.75961700      65.53722200
175            1        62.36634300      77.26609100      64.57539100
176            2        24.61079700     102.75008300      12.06379700
177            1        25.53798900     102.37074100      11.61853900
178            1        24.65728500     102.64060100      13.15360900
179            1        23.75886800     102.17991200      11.67526100
180            1        24.48904700     103.80907800      11.80777800
181            2        62.97372700      11.18723300      97.72044100
182            1        64.02408600      10.94538300      97.52020900
183            1        62.43968800      10.27744800      98.01865800
184            1        62.51468500      11.60007800      96.81452800
185            1        62.91644800      11.92602300      98.52836900
186            2        36.45639900      34.43252900      15.28237100
187            1        37.27108200      33.81420700      15.67709600
188            1        35.68807400      33.78666200      14.84149400
189            1        36.84996000      35.10878100      14.51449600
190            1        36.01647800      35.02046500      16.09639800
191            2        97.43595100      54.03735500      10.84771700
192            1        97.85174000      53.77334500      11.82713400
193            1        96.34113600      54.00603800      10.89502200
194            1        97.78982900      53.32241700      10.09573700
195            1        97.76110000      55.04761900      10.57297600
196            2        51.96674500      45.21290400      60.67583500
197            1        52.93959500      45.70696500      60.56950600
198            1        51.91506900      44.35683800      59.99295900
199            1        51.16773200      45.92304800      60.43270500
200            1        51.84458400      44.86476400      61.70816900
201            2        42.81013000      18.53040300      76.05080800
202            1        43.16527500      17.54498100      75.72730400
203            1        43.16180600      19.29450000      75.34773000
204            1        43.19929900      18.74844200      77.05223000
205            1        41.71413900      18.53368800      76.07596900
206            2        39.52447600     129.77975500      63.23659800
207            1        39.82466600     130.66889400      63.80330500
208            1        40.04621400     128.90065300      63.63258800
209            1        39.78520400     129.91440300      62.18031700
210            1        38.44181800     129.63507000      63.33018300
211            2        23.46327100     104.59716300      69.34043800
212            1        24.08795300     105.14380400      70.05653600
213            1        23.54827300     103.52051800      69.52871700
214            1        23.79878200     104.81734000      68.32024500
215            1        22.41807700     104.90699200      69.45625500
216            2       133.49009900     131.16181900      58.16434500
217            1       134.08379700     130.38269000      57.67208500
218            1       133.14710500     131.88682800      57.41697900
219            1       134.10667300     131.67277300      58.91307900
220            1       132.62282400     130.70498500      58.65523600
221            2        21.95856700     130.95159000      46.41926500
222            1        21.33657700     131.53451400      47.10859000
223            1        22.72923100     130.41628700      46.98615800
224            1        22.43677300     131.62598100      45.69929600
225            1        21.33168700     130.22957900      45.88301800
226            2       136.27121500      94.26792700       1.95716000
227            1       137.06232400      95.01337800       2.09960200
228            1       135.79141700      94.05576500       2.91977100
229            1       136.70629500      93.34571300       1.55458600
230            1       135.52482500      94.65685300       1.25468100
231            2        95.05440900     129.45193500     131.51815800
232            1        95.97081600     128.88633000     131.72341400
233            1        94.23101500     129.04281400     132.11521900
234            1        94.80746800     129.37355900     130.45292800
235            1        95.20833700     130.50503500     131.78107300
236            2       135.45562100      51.26714400       8.53750500
237            1       136.08395500      51.83496000       7.84135800
238            1       134.90979000      50.49151900       7.98767300
239            1       134.74120000      51.94413300       9.02033800
240            1       136.08753800      50.79796400       9.30064900
241            2        29.58303500     127.08744700      50.49632500
242            1        29.56539100     127.92231000      49.78602100
243            1        29.01874100     127.36077600      51.39560500
244            1        30.62045800     126.86252000      50.77018600
245            1        29.12755000     126.20418300      50.03348900
246            2        12.40729800      61.01664400      97.87749900
247            1        13.09558600      61.49034600      97.16777700
248            1        11.56644600      60.57382500      97.33094700
249            1        12.03078800      61.76980300      98.57951800
250            1        12.93637200      60.23260200      98.43175300
251            2        81.00347600     100.16025600      89.25140100
252            1        81.26410900     101.14783300      89.64964700
253            1        80.00394300     100.19929500      88.80279400
254            1        81.01066300      99.42485800      90.06440700
255            1        81.73518900      99.86903600      88.48875700
256            2        64.82928500     105.67211600     100.46564100
257            1        64.28373600     106.40189000      99.85601300
258            1        65.09237000     104.80471600      99.84900300
259            1        64.19730200     105.34848300     101.30092400
260            1        65.74373100     106.13337600     100.85662200
261            2        40.53521400      81.87438000     115.59185900
262            1        40.18416400      81.08766400     114.91386200
263            1        41.17600800      82.57260300     115.04076400
264            1        41.10680000      81.42259400     116.41101600
265            1        39.67388400      82.41466000     116.00179500
266            2       125.21977800      90.59387600      35.86080800
267            1       125.90626700      90.74652400      35.01981500
268            1       124.50769900      91.42613300      35.90696900
269            1       125.79105300      90.54946400      36.79542700
270            1       124.67409200      89.65338300      35.72102300
271            2        72.01876900      54.50175000      10.63627800
272            1        72.26538500      53.69929200      11.34131800
273            1        72.14439000      55.47280100      11.12934900
274            1        70.97925400      54.39136000      10.30603300
275            1        72.68604800      54.44354800       9.76841200
276            2        56.07024500      57.30137400      53.39640200
277            1        55.23281200      57.01265600      52.75050200
278            1        56.55635800      56.40060600      53.78902200
279            1        55.69675200      57.90781800      54.22980900
280            1        56.79505900      57.88441500      52.81627500
281            2        42.54150200      86.08284400      46.83220500
282            1        41.66230200      86.72897500      46.72561600
283            1        43.36672000      86.65769500      47.26855400
284            1        42.83961800      85.70592900      45.84686100
285            1        42.29736800      85.23877700      47.48778800
286            2        84.20373800      89.76039400     103.60217200
287            1        84.00010500      90.59965900     104.27745500
288            1        84.38054500      88.85248100     104.19062100
289            1        85.09161200      89.98369500     102.99913400
290            1        83.34269000      89.60574100     102.94147700
291            2        38.61214000      91.39763300      39.83125900
292            1        38.67599400      91.14646200      40.89647000
293            1        37.59756300      91.74043300      39.59682100
294            1        38.84555800      90.50989900      39.23185600
295            1        39.32944300      92.19373700      39.59988800
296            2        84.37814200      43.51007500     132.29217000
297            1        83.79441700      44.06420000     133.03651600
298            1        84.82679100      44.21414800     131.58165300
299            1        83.72065900      42.81715000     131.75420200
300            1        85.17070000      42.94480300     132.79631100
301            2         5.13426400     124.24895200      22.07606900
302            1         4.67181000     124.08786400      21.09524000
303            1         5.90683600     123.48970700      22.24494500
304            1         4.36943700     124.17220800      22.85772700
305            1         5.58897300     125.24602800      22.10636400
306            2       103.29454900     131.61131500      41.43171600
307            1       103.15895700     130.60909900      41.00861200
308            1       102.55707100     131.77545900      42.22608600
309            1       103.15703300     132.36193000      40.64463000
310            1       104.30513400     131.69877100      41.84753800
311            2        93.43683400      25.03150900      13.22947900
312            1        92.60729600      25.20793600      12.53480100
313            1        94.15615900      24.34213900      12.77211800
314            1        93.04989100      24.59352500      14.15699400
315            1        93.93399000      25.98243700      13.45400300
316            2        35.03829600     112.30615900      34.77762000
317            1        34.40540300     113.14895900      34.47600000
318            1        36.06548300     112.48003100      34.43630600
319            1        34.65533700     111.38243200      34.32827400
320            1        35.02696000     112.21321300      35.86989800
321            2       120.88054200       5.17199400      22.03914300
322            1       120.25300400       4.30348200      22.27092300
323            1       120.27613200       6.08490000      22.09508600
324            1       121.29098200       5.06686300      21.02804200
325            1       121.70205000       5.23273000      22.76252000
326            2        46.63414700      45.50020900      62.57790000
327            1        45.63538500      45.36852600      62.14549400
328            1        46.54820700      45.99597200      63.55189800
329            1        47.24452300      46.11599400      61.90701400
330            1        47.10847100      44.52034200      62.70719400
331            2        19.57628500      60.70149400      33.64734100
332            1        20.43796200      60.59093700      34.31601700
333            1        18.66530100      60.83033300      34.24345200
334            1        19.48081900      59.80537500      33.02308500
335            1        19.72105700      61.57933200      33.00681000
336            2        94.94021600      62.75499600      81.06953800
337            1        94.29070600      62.14926800      81.71224300
338            1        95.96313600      62.73747100      81.46345000
339            1        94.57392100      63.78808500      81.04969300
340            1        94.93310200      62.34516000      80.05276700
341            2        89.13503700      90.58704500      31.85088200
342            1        89.79343600      90.95365900      31.05467600
343            1        88.18139400      91.12651800      31.81384900
344            1        89.61125000      90.75308000      32.82427500
345            1        88.95407000      89.51492200      31.71072900
346            2        71.36478600     123.01588600      84.68696700
347            1        71.66767300     122.22219400      85.37989600
348            1        71.25262500     123.95774100      85.23666500
349            1        70.40920700     122.74888300      84.22068700
350            1        72.12963900     123.13472700      83.91061900
351            2       124.89209700      73.12561800     129.06691000
352            1       124.09636300      73.09718400     128.31335900
353            1       125.23461300      74.15875500     129.19787000
354            1       125.73076800      72.50169600     128.73646700
355            1       124.50664400      72.74483700     130.01994200
356            2       132.29894700     125.56148800     116.82156200
357            1       132.47591000     124.92718600     117.69802300
358            1       131.72551200     125.00056400     116.07431700
359            1       133.25997800     125.86653100     116.39120500
360            1       131.73438700     126.45167100     117.12270300
361            2        51.70168000      82.32781500     111.75409200
362            1        52.05565500      81.74728900     110.89413300
363            1        51.51382400      83.36246200     111.44416700
364            1        52.46362500      82.31503500     112.54220100
365            1        50.77361500      81.88647300     112.13586900
366            2        29.54502000      26.00331700     135.86535500
367            1        30.30596800      26.19142000     135.09892400
368            1        28.96276600      25.11554400     135.59208300
369            1        28.87756300      26.86995000     135.93806700
370            1        30.03378600      25.83635500     136.83234600
371            2        26.52694600      24.36129100     104.28548200
372            1        26.61896000      25.37669000     103.88256900
373            1        26.23975900      23.67370600     103.48137400
374            1        25.76068500      24.34724100     105.06937400
375            1        27.48837900      24.04752800     104.70861000
376            2       112.48354200      76.71759700      68.10279400
377            1       112.99086000      77.15930900      67.23713900
378            1       113.18714000      76.64377100      68.94025400
379            1       112.11982000      75.71688500      67.84179400
380            1       111.63634900      77.35042200      68.39198900
381            2        33.95552300      39.41734900     120.99183500
382            1        33.89449900      39.76845000     122.02858200
383            1        34.81228400      39.88870000     120.49622600
384            1        33.03416100      39.68391400     120.46091600
385            1        34.08114800      38.32833500     120.98161700
386            2        60.91694200      66.37694300      14.99884500
387            1        61.49936400      67.28929400      15.17274100
388            1        60.14651700      66.57351900      14.24409900
389            1        60.43997600      66.06389700      15.93497800
390            1        61.58191300      65.58106200      14.64356200
391            2        19.48077300      63.72185600      30.06824200
392            1        18.75509600      64.10798300      29.34288800
393            1        20.23121700      63.11590000      29.54719600
394            1        18.96224100      63.10306900      30.80990700
395            1        19.97453700      64.56047300      30.57297800
396            2        70.53944700       6.36569800      81.43306600
397            1        71.55725200       6.77210400      81.46039100
398            1        70.37374300       5.73565900      82.31478700
399            1        70.41007000       5.76500800      80.52517100
400            1        69.81672400       7.19002200      81.43191400
401            2       130.16751900      78.95935400     121.60299800
402            1       129.48243600      79.61485000     122.15329400
403            1       130.02562100      79.10433800     120.52564800
404            1       129.96011100      77.91437600     121.86153800
405            1       131.20190800      79.20385100     121.87151200
406            2        10.48328900      40.17479700      12.40168200
407            1        11.00350100      40.36819500      13.34710000
408            1         9.74523600      40.96533600      12.22233600
409            1         9.97439900      39.20531800      12.45627500
410            1        11.21002100      40.16034000      11.58101700
411            2        43.81592200      62.83760000      34.51850500
412            1        43.13146000      63.66360600      34.74448400
413            1        44.44983200      62.63927600      35.39066600
414            1        44.44570000      63.10850000      33.66303300
415            1        43.23669600      61.93901900      34.27583600
416            2         7.95084600      88.17554300       5.85815700
417            1         8.91602500      88.68956200       5.93595500
418            1         7.22296100      88.83635300       5.37302400
419            1         7.59459500      87.91328700       6.86122600
420            1         8.06980200      87.26297000       5.26242300