4.212749999999999773e+01 3.303999999999999915e+01 2.893990000000000151e+01 4.243939999999999912e+01 3.371269999999999811e+01 2.974350000000000094e+01 3.791760000000000019e+01 3.415870000000000317e+01 2.804220000000000113e+01 3.809819999999999851e+01 3.493090000000000117e+01 2.732150000000000034e+01
8.369710000000000605e+01 2.873920000000000030e+01 3.847270000000000323e+01 8.312130000000000507e+01 2.926559999999999917e+01 3.770600000000000307e+01 8.154760000000000275e+01 3.052270000000000039e+01 4.193059999999999832e+01 8.086939999999999884e+01 3.143619999999999948e+01 4.218480000000000274e+01
4.068240000000000123e+01 5.304590000000000316e+01 8.562649999999999295e+01 4.181680000000000064e+01 5.295060000000000144e+01 8.559529999999999461e+01 4.070210000000000150e+01 5.107800000000000296e+01 8.099809999999999377e+01 4.010790000000000077e+01 5.202590000000000003e+01 8.077519999999999811e+01
1.259879999999999995e+02 3.108899999999999864e+01 1.313650000000000091e+02 1.261419999999999959e+02 3.219819999999999993e+01 1.311210000000000093e+02 1.250280000000000058e+02 3.617139999999999844e+01 1.297779999999999916e+02 1.243299999999999983e+02 3.543220000000000169e+01 1.292470000000000141e+02
1.093849999999999945e+01 1.355380000000000109e+02 7.332450000000000045e+01 1.050469999999999970e+01 1.358820000000000050e+02 7.238030000000000541e+01 1.347189999999999976e+01 1.368629999999999995e+02 7.589579999999999416e+01 1.334730000000000061e+01 1.362179999999999893e+02 7.683520000000000039e+01
1.179140000000000015e+02 1.205010000000000048e+02 6.831690000000000040e+00 1.172890000000000015e+02 1.211119999999999948e+02 7.500040000000000262e+00 1.169620000000000033e+02 1.243979999999999961e+02 4.598359999999999559e+00 1.160799999999999983e+02 1.246740000000000066e+02 3.912809999999999899e+00
6.192900000000000205e+01 1.842259999999999920e+01 7.466339999999999577e+01 6.103920000000000101e+01 1.879860000000000042e+01 7.521200000000000330e+01 5.897460000000000235e+01 1.836939999999999884e+01 7.223550000000000182e+01 5.808030000000000115e+01 1.884649999999999892e+01 7.239570000000000505e+01
4.926389999999999958e+01 6.600270000000000437e+01 1.062780000000000058e+02 5.002550000000000097e+01 6.590730000000000643e+01 1.054000000000000057e+02 4.531989999999999696e+01 6.870990000000000464e+01 1.065090000000000003e+02 4.447679999999999723e+01 6.879770000000000607e+01 1.058649999999999949e+02
