-5.960497570594884564e+03
-5.960350311960449289e+03
-5.960437478656604981e+03
-5.960370947170980799e+03
-5.960483699019307096e+03
-5.960462204663675948e+03
-5.960014000587386363e+03
-5.960213754502980919e+03
