-5.595346233764776356e-01 -1.205006782938673249e+00 -1.440732893605800369e+00 5.600410793190520042e-01 1.204925433227925780e+00 1.441162987778172422e+00 -1.003222424974104632e+00 -4.291125302460740087e+00 4.005573830934493706e+00 1.002716020453597867e+00 4.291206600749419842e+00 -4.006003873684798933e+00
9.970646323938144873e-01 -9.112392477372625033e-01 1.324737153519538468e+00 -9.965678437999258010e-01 9.106718566447287166e-01 -1.324185086203112593e+00 -4.402532188667482416e+00 5.930050002708942891e+00 1.647483903379637349e+00 4.402035400073593507e+00 -5.929482663038476709e+00 -1.648036022118130939e+00
4.582487930410418464e+00 -3.852760353333789523e-01 -1.256148034504511179e-01 -4.582219815750596226e+00 3.855269750226634207e-01 1.266606768808520855e-01 -2.516879009350782237e+00 4.014216337815240010e+00 -9.441249968621272526e-01 2.516610946113027936e+00 -4.014467277504524034e+00 9.430790720096589030e-01
7.366995352512707429e-01 5.291488454794890828e+00 -1.163259108971140821e+00 -7.394022791178264109e-01 -5.287615138984303798e+00 1.160864280444633190e+00 -3.386328725557585795e+00 -3.586906618975025385e+00 -2.576384265879914093e+00 3.389031418002074414e+00 3.583033303164438799e+00 2.578779042984353786e+00
7.064623311338414924e-01 -5.501058216619509889e-01 1.529920715832562061e+00 -7.006841362556617270e-01 5.533821272691377136e-01 -1.524106216974744132e+00 -6.022033694166459838e-01 -3.091188632531097547e+00 4.492543586726943872e+00 5.964251745384662184e-01 3.087912378345978315e+00 -4.498358085584762911e+00
4.686734756519689293e-01 -4.573449370765969024e-01 -5.006824785263623845e-01 -4.684905159358880855e-01 4.585796323387709705e-01 4.999584043942282285e-01 -4.586673943813328158e+00 1.432290264301334881e+00 -3.563646515238986900e+00 4.586490984097247647e+00 -1.433524959563509116e+00 3.564370537949053563e+00
-6.546048215901260070e-01 2.779802405772340834e-01 4.081761845970836022e-01 6.542555114857593335e-01 -2.802477994867376143e-01 -4.140631885700432613e-01 1.432849895803886398e+01 -7.638038087700508072e+00 -2.553037618804312459e+00 -1.432814969935656535e+01 7.640305646610011436e+00 2.558924622777272173e+00
4.967610162339974877e+00 -6.237454104562333290e-01 -5.726591187961142637e+00 -4.967155539841416889e+00 6.230902933165849422e-01 5.726632685569596148e+00 5.844754213925329012e+00 -6.072072508027672733e-01 4.464239955190760334e+00 -5.845208785001819507e+00 6.078623679424156601e-01 -4.464281452799213845e+00
