# LAMMPS data file written by OVITO
5 atoms
2 atom types
0.0 10.0 xlo xhi
0.0 10.0 ylo yhi
0.0 10.0 zlo zhi

Atoms # atomic

1 1 5.3815436 4.0686078 3.6057303
2 1 3.9453964 4.8032055 4.3846884
3 1 5.5209246 5.6545029 4.4270873
4 1 5.2818532 4.1641479 5.3918266
5 2 5.032506 4.6725517 4.4523235
