# LAMMPS data file written by OVITO
5 atoms
2 atom types
0.0 10.0129604 xlo xhi
0.0 9.8114872 ylo yhi
0.0 10.0034037 zlo zhi
0.1839246 -0.2657433 0.0743057 xy xz yz

Atoms # atomic

1 1 5.3673735 4.0180168 3.6064184
2 1 3.9238246 4.7459641 4.3887272
3 1 5.5113898 5.5753641 4.4316597
4 1 5.2234678 4.1272521 5.395483
5 2 5.0053172 4.6191197 4.4520407
