# LAMMPS data file written by OVITO
5 atoms
2 atom types
0.0 9.8373966 xlo xhi
0.0 9.933713 ylo yhi
0.0 10.0974064 zlo zhi
0.0908466 0.0538699 0.1353076 xy xz yz

Atoms # atomic

1 1 5.3430371 4.0925231 3.6387766
2 1 3.9516976 4.8352375 4.4307785
3 1 5.5030046 5.6716504 4.4639049
4 1 5.2607274 4.2107644 5.4454866
5 2 5.0103569 4.6986027 4.4935065
