# LAMMPS data file written by OVITO
5 atoms
2 atom types
0.0 9.9338884 xlo xhi
0.0 9.9580766 ylo yhi
0.0 10.1671677 zlo zhi
0.1562563 -0.2769184 7.0692186e-04 xy xz yz

Atoms # atomic

1 1 5.3111353 4.0435405 3.6637748
2 1 3.866894 4.7902437 4.4571109
3 1 5.4496179 5.6310902 4.5018053
4 1 5.1629663 4.1468849 5.4818831
5 2 4.9489574 4.6532684 4.5267587
