# LAMMPS data file written by OVITO
5 atoms
2 atom types
0.0 10.0654945 xlo xhi
0.0 9.8754836 ylo yhi
0.0 10.2160339 zlo zhi
7.1121926e-05 0.0644881 -0.1008083 xy xz yz

Atoms # atomic

1 1 5.4415255 3.9796646 3.6828711
2 1 4.0037003 4.6968942 4.477756
3 1 5.5937629 5.5427332 4.5225883
4 1 5.3507176 4.0582576 5.5084276
5 2 5.0933876 4.5701857 4.547122
