1.018430000000000035e+02 4.969859999999999900e+01 1.353329999999999984e+02 1.032000000000000028e+02 4.702759999999999962e+01 1.362549999999999955e+02 1.045340000000000060e+02 4.807630000000000337e+01 1.353400000000000034e+02 1.030349999999999966e+02 4.741499999999999915e+01 1.348909999999999911e+02 1.043559999999999945e+02 4.622930000000000206e+01 1.349830000000000041e+02 1.009342809999999986e+02 5.017654100000000028e+01 1.349670729999999992e+02 1.039800000000000040e+02 4.713859999999999673e+01 1.354939999999999998e+02
