-4.089667577468780735e+00 2.151826656091032408e+00 -1.653102741270708220e+00 1.699938577392955841e+00 -3.551184325764031313e-01 1.642811694328738525e+00 2.773689864611429412e-01 -6.096290759146997251e-01 9.768944806924281243e-01 1.319527943817984328e+00 -2.858027711700026896e-01 -9.191411225801470186e-01 2.371596036421648457e-02 5.448710551928610535e-01 8.333591895706122799e-01 4.084815545447916918e+00 -2.146832904852203683e+00 1.649939512789902141e+00 -3.315699436015435708e+00 7.006854732294161003e-01 -2.530761013530825831e+00
