LAMMPS (16 Mar 2018)
clear
units 	metal
dimension	3
boundary	p	p    p
atom_style	atomic
box         tilt large
read_data   conf.lmp
  triclinic box = (0 0 0) to (3.63457 6.55231 22.6811) with tilt (1.81728 1.81729 2.0161)
WARNING: Triclinic box skew is large (../domain.cpp:197)
  1 by 1 by 1 MPI processor grid
  reading atoms ...
  21 atoms
mass            1 1
neigh_modify    every 1 delay 0 check no
pair_style deepmd frozen_model.pb
pair_coeff
compute         mype all pe
thermo          100
thermo_style    custom step pe pxx pyy pzz pxy pxz pyz lx ly lz vol c_mype
dump            1 all custom 100 dump.relax id type xs ys zs fx fy fz
min_style       cg
minimize        1.000000e-12 1.000000e-06 5000 500000
WARNING: Using 'neigh_modify every 1 delay 0 check yes' setting during minimization (../min.cpp:168)
Neighbor list info ...
  update every 1 steps, delay 0 steps, check yes
  max neighbors/atom: 2000, page size: 100000
  master list distance cutoff = 10
  ghost atom cutoff = 10
  binsize = 5, bins = 2 2 5
  1 neighbor lists, perpetual/occasional/extra = 1 0 0
  (1) pair deepmd, perpetual
      attributes: , newton on
      pair build: full/bin/atomonly
      stencil: full/bin/3d
      bin: standard
Per MPI rank memory allocation (min/avg/max) = 5.149 | 5.149 | 5.149 Mbytes
Step PotEng Pxx Pyy Pzz Pxy Pxz Pyz Lx Ly Lz Volume c_mype 
       0   -73.341889    -19299.89   -15580.972   -10753.557 -0.00074818022 -0.031738596    960.57614    3.6345671    6.5523093     22.68107    540.14533   -73.341889 
      23   -73.493012   -9931.2226   -10204.751  0.080473137 -0.0020095909 -0.0048727939 0.0094708177    3.6345671    6.5523093     22.68107    540.14533   -73.493012 
Loop time of 3.69244 on 1 procs for 23 steps with 21 atoms

324.9% CPU use with 1 MPI tasks x no OpenMP threads

Minimization stats:
  Stopping criterion = energy tolerance
  Energy initial, next-to-last, final = 
         -73.341889385     -73.4930124099       -73.49301241
  Force two-norm initial, final = 1.2538 1.07986e-05
  Force max component initial, final = 0.597595 3.32985e-06
  Final line search alpha, max atom move = 1 3.32985e-06
  Iterations, force evaluations = 23 46

MPI task timing breakdown:
Section |  min time  |  avg time  |  max time  |%varavg| %total
---------------------------------------------------------------
Pair    | 3.6905     | 3.6905     | 3.6905     |   0.0 | 99.95
Neigh   | 0          | 0          | 0          |   0.0 |  0.00
Comm    | 0.00079632 | 0.00079632 | 0.00079632 |   0.0 |  0.02
Output  | 0          | 0          | 0          |   0.0 |  0.00
Modify  | 0          | 0          | 0          |   0.0 |  0.00
Other   |            | 0.001172   |            |       |  0.03

Nlocal:    21 ave 21 max 21 min
Histogram: 1 0 0 0 0 0 0 0 0 0
Nghost:    1087 ave 1087 max 1087 min
Histogram: 1 0 0 0 0 0 0 0 0 0
Neighs:    0 ave 0 max 0 min
Histogram: 1 0 0 0 0 0 0 0 0 0

Total # of neighbors = 0
Ave neighs/atom = 0
Neighbor list builds = 0
Dangerous builds not checked
variable        N equal count(all)
variable        V equal vol
variable        E equal "c_mype"
variable        tmplx equal lx
variable        tmply equal ly
variable        Pxx equal pxx
variable        Pyy equal pyy
variable        Pzz equal pzz
variable        Pxy equal pxy
variable        Pxz equal pxz
variable        Pyz equal pyz
variable        Epa equal ${E}/${N}
variable        Epa equal -73.4930124099501/${N}
variable        Epa equal -73.4930124099501/21
variable        Vpa equal ${V}/${N}
variable        Vpa equal 540.145329384192/${N}
variable        Vpa equal 540.145329384192/21
variable        AA equal (${tmplx}*${tmply})
variable        AA equal (3.6345670808*${tmply})
variable        AA equal (3.6345670808*6.5523092917)
print "All done"
All done
print "Total number of atoms = ${N}"
Total number of atoms = 21
print "Final energy per atoms = ${Epa}"
Final energy per atoms = -3.49966725761667
print "Final volume per atoms = ${Vpa}"
Final volume per atoms = 25.721206161152
print "Final Base area = ${AA}"
Final Base area = 23.8148076548328
print "Final Stress (xx yy zz xy xz yz) = ${Pxx} ${Pyy} ${Pzz} ${Pxy} ${Pxz} ${Pyz}"
Final Stress (xx yy zz xy xz yz) = -9931.22256985339 -10204.7505563485 0.0804731369329217 -0.00200959093362759 -0.00487279387894738 0.00947081769996731
Total wall time: 0:00:06
