2.380059183131036704e+00 5.097320424932510335e-02 2.909615975298435853e+00 1.730866791253131698e-01 1.128023319940540503e+00 -1.473880381054119837e-01 1.294366252026670772e+00 -1.734450395135556933e-01 -5.176829739885080439e-01 -1.409106110958958658e+00 8.222666268628893160e-01 2.456779262299556288e-01 1.559938501988069826e+00 1.647771352736830064e+00 5.003693695574989997e-01 4.102889630834833518e-02 7.607859916116541665e-01 1.394323346422931875e+00 -7.263360860382943596e-01 2.268172837567145717e+00 -7.099704474212114036e-01 -4.283494216225185447e-01 2.604883044162171202e-01 3.455155671634691505e-01 -2.437647579250854069e+00 -1.826137175575465399e+00 -2.489490073550866711e+00 -4.506025784332360340e-01 -4.936190764891264848e+00 -1.529969412530462147e+00 -1.271223956247220233e-01 5.113746690167149112e-01 1.264363069738326351e+00 1.306847107712119926e-01 -5.140832235768953984e-01 -1.265364257392090463e+00
