9.556959999999999411e+01 8.926249999999999574e+00 4.381580000000000297e+01 9.544224699999999473e+01 1.000865100000000041e+01 4.379881999999999920e+01 9.670640000000000214e+01 6.921260000000000190e+00 4.701350000000000051e+01 9.634130000000000393e+01 5.892769999999999619e+00 4.718090000000000117e+01
6.811220000000000141e+01 2.955989999999999895e+01 6.791360000000000241e+01 6.790290099999999995e+01 3.023865999999999943e+01 6.874038799999999583e+01 6.982789999999999964e+01 2.499749999999999872e+01 6.705259999999999820e+01 7.051999999999999602e+01 2.520619999999999905e+01 6.619490000000000407e+01
2.950469999999999970e+01 1.209320000000000022e+02 4.740469999999999828e+01 3.020927000000000007e+01 1.217462220000000030e+02 4.723521900000000073e+01 2.637709999999999866e+01 1.171959999999999980e+02 4.720689999999999742e+01 2.611560000000000059e+01 1.166500000000000057e+02 4.629299999999999926e+01
5.573579999999999757e+01 1.401365560000000130e+02 1.268119999999999976e+02 5.630287200000000070e+01 1.403217919999999879e+02 1.258997410000000059e+02 5.184129999999999683e+01 1.382549999999999955e+02 1.284819999999999993e+02 5.103379999999999939e+01 1.385730000000000075e+02 1.291179999999999950e+02
1.215030000000000001e+02 1.588620000000000054e+01 8.963729999999999620e+01 1.211854809999999958e+02 1.485122400000000020e+01 8.951038900000000353e+01 1.242319999999999993e+02 1.791839999999999833e+01 9.195770000000000266e+01 1.242019999999999982e+02 1.861189999999999856e+01 9.110049999999999670e+01
