-3.011194076725249033e+03
-3.011175249929024176e+03
-3.011188668625500668e+03
-3.011122347347836239e+03
-3.011193889456488705e+03
