1.105709999999999980e+02 3.890420000000000300e+01 8.080970000000000653e+01 1.102540000000000049e+02 3.951539999999999964e+01 7.902079999999999416e+01 1.093050000000000068e+02 3.829059999999999775e+01 8.035890000000000555e+01 1.107189999999999941e+02 3.780429999999999779e+01 7.970499999999999829e+01 1.104080000000000013e+02 3.987290000000000134e+01 8.265149999999999864e+01 1.112189999999999941e+02 3.864200000000000301e+01 8.351049999999999329e+01 1.099620000000000033e+02 4.013920000000000243e+01 8.393859999999999388e+01 1.122189999999999941e+02 4.001930000000000121e+01 8.303319999999999368e+01 1.100999999999999943e+02 3.872010000000000218e+01 7.983700000000000330e+01 1.111550000000000011e+02 3.969449999999999790e+01 8.343229999999999791e+01 1.070270000000000010e+02 3.893160000000000309e+01 7.978849999999999909e+01 1.076009999999999991e+02 3.954930000000000234e+01 7.900730000000000075e+01
6.615040000000000475e+01 2.473570000000000135e+01 8.864950000000000330e+01 6.518829999999999814e+01 2.339890000000000114e+01 8.772880000000000678e+01 6.446649999999999636e+01 2.506899999999999906e+01 8.783129999999999882e+01 6.477190000000000225e+01 2.395220000000000127e+01 8.959969999999999857e+01 6.325039999999999907e+01 2.831240000000000023e+01 8.588819999999999766e+01 6.510349999999999682e+01 2.751409999999999911e+01 8.600369999999999493e+01 6.318260000000000076e+01 2.685140000000000171e+01 8.522159999999999513e+01 6.433429999999999893e+01 2.608670000000000044e+01 8.765470000000000539e+01 6.525249999999999773e+01 2.424650000000000105e+01 8.850199999999999534e+01 6.386599999999999966e+01 2.729029999999999845e+01 8.591339999999999577e+01 6.643590000000000373e+01 2.895169999999999888e+01 8.751090000000000657e+01 6.590720000000000312e+01 2.959039999999999893e+01 8.822830000000000439e+01
1.288830000000000098e+02 5.211580000000000013e+01 7.794350000000000023e+01 1.277570000000000050e+02 5.119599999999999795e+01 7.845730000000000359e+01 1.291579999999999870e+02 5.115409999999999968e+01 7.705049999999999955e+01 1.294629999999999939e+02 5.048930000000000007e+01 7.847010000000000218e+01 1.300169999999999959e+02 5.225939999999999941e+01 8.193890000000000384e+01 1.281239999999999952e+02 5.267269999999999897e+01 8.133400000000000318e+01 1.282709999999999866e+02 5.014189999999999969e+01 7.838370000000000459e+01 1.292930000000000064e+02 5.159550000000000125e+01 7.953570000000000562e+01 1.287889999999999873e+02 5.117240000000000322e+01 7.813439999999999941e+01 1.292439999999999998e+02 5.249719999999999942e+01 8.117109999999999559e+01 1.315329999999999870e+02 4.805449999999999733e+01 7.651860000000000639e+01 1.313439999999999941e+02 4.918869999999999720e+01 7.619150000000000489e+01
