-5.181709780871795374e+03
-5.179078457890169375e+03
-5.170638350981054828e+03
