8.691647351088503948e-01 1.696701146868781152e+00 -2.545368171706420823e-01 -1.047181916329996243e+00 -1.400410587926644412e+00 1.602326637806019916e+00 -2.814449360708269232e+00 -5.526679261739590038e-02 -8.422505792579438877e-01 -1.664458276431505512e-01 3.815454157600390306e-01 -1.226879005073526097e+00 1.169999513575937566e+00 -6.809242298086014555e-01 -1.946809906964901860e+00 -3.461883734943294044e-01 -1.213524591305789269e+00 6.521204672441422989e-01 4.609704653706354627e+00 -4.569840055849805349e-01 8.826600453414724656e-01 -2.460905626104193722e+00 7.713123459343954602e-01 1.767926109640577614e+00 3.924553169996727764e+00 -9.113721223596212839e-01 7.953279426857965406e-01 -2.954267144883951701e+00 1.628217494514147434e+00 -1.207369884049547704e+00 2.675985828101643982e+00 3.280202474304123150e+00 -4.114350067013281986e+00 -3.459969651325623285e+00 -3.039496599200520510e+00 3.891835108233902663e+00
2.082571929834591273e+00 8.225039911263599679e-01 -6.618225772473056157e-02 6.357616677620336887e-01 9.900703570418871724e-01 1.468456484220852065e+00 1.361320714938693444e+00 -1.016429720206791787e+00 1.758365410322974443e+00 9.968277823510186542e-01 7.609259624793247578e-01 -3.121777820700402106e+00 1.676651168539087022e+00 -1.490516448324060939e+00 1.486127060644281572e+00 -3.954729901762804367e+00 -1.071942464572926745e+00 -1.375577637412707110e+00 8.896893391213512858e-01 -2.041526167088111077e+00 -8.709100000789968821e-01 -1.313639448605067761e+00 1.652728542885683050e+00 -2.138513585665546390e+00 -4.789528292157944733e+00 -1.874853825237726923e+00 2.858384580848312151e-01 2.380576232019511629e+00 3.231877095153288693e+00 2.529120649578330937e+00 7.178581297734726308e-01 -8.148288361789786105e-01 -9.100103117466457059e-01 -6.833593732360103701e-01 8.519915643441192676e-01 9.550635504777589269e-01
1.527108545806416862e+00 7.884729440036286618e+00 7.434899735277219479e-01 -1.953122531390363070e+00 9.997963268843594875e-01 8.288002633343637404e-01 -1.371590318878525228e+00 -2.062163231162182253e+00 -1.332345408357133110e+00 3.260174710307578660e+00 -1.269991626400150064e+00 2.396803082476475666e+00 -1.151380868494446874e+00 -3.463620772382644541e-01 -2.581102909057744199e-01 1.691156408176943682e+00 -5.923850969630537477e-01 5.177618554400167383e-01 -6.032934144030092094e-01 -3.008542828572809302e+00 -9.417756768653363642e-01 1.584642485956776481e-01 1.874968496448199184e+00 4.959781975319784486e+00 -9.412568796265676774e-01 -3.077820231961006847e+00 -3.281874257139846041e+00 -5.828755626025892145e-01 -4.584851185787494621e-01 -3.646074289631175525e+00 -1.572436069845448481e+00 9.231969918724814761e+00 -2.638601419403612702e+00 1.539051732354333346e+00 -9.175714074061579240e+00 2.652144243626582742e+00
