 vasp.5.4.4.18Apr17-6-g9f103f2a35 (build Jul 12 2018 13:43:46) complex           
 executed on             LinuxGNU date 2019.06.24  12:44:35
 running on    1 total cores
 distrk:  each k-point on    1 cores,    1 groups
 distr:  one band on NCORES_PER_BAND=   1 cores,    1 groups


--------------------------------------------------------------------------------------------------------


 INCAR:
 POTCAR:    PAW_PBE H 15Jun2001                   
 POTCAR:    PAW_PBE C 08Apr2002                   
 POTCAR:    PAW_PBE H 15Jun2001                   
   VRHFIN =H: ultrasoft test                                                    
   LEXCH  = PE                                                                  
   EATOM  =    12.4884 eV,    0.9179 Ry                                         
                                                                                
   TITEL  = PAW_PBE H 15Jun2001                                                 
   LULTRA =        F    use ultrasoft PP ?                                      
   IUNSCR =        0    unscreen: 0-lin 1-nonlin 2-no                           
   RPACOR =    0.000    partial core radius                                     
   POMASS =    1.000; ZVAL   =    1.000    mass and valenz                      
   RCORE  =    1.100    outmost cutoff radius                                   
   RWIGS  =    0.700; RWIGS  =    0.370    wigner-seitz radius (au A)           
   ENMAX  =  250.000; ENMIN  =  200.000 eV                                      
   RCLOC  =    0.701    cutoff for local pot                                    
   LCOR   =        T    correct aug charges                                     
   LPAW   =        T    paw PP                                                  
   EAUG   =  400.000                                                            
   RMAX   =    1.123    core radius for proj-oper                               
   RAUG   =    1.200    factor for augmentation sphere                          
   RDEP   =    1.112    radius for radial grids                                 
   RDEPT  =    0.926    core radius for aug-charge                              
                                                                                
   Atomic configuration                                                         
    2 entries                                                                   
     n  l   j            E        occ.                                          
     1  0  0.50        -6.4927   1.0000                                         
     2  1  0.50        -3.4015   0.0000                                         
   Description                                                                  
     l       E           TYP  RCUT    TYP  RCUT                                 
     0     -6.4927494     23  1.100                                             
     0      6.8029130     23  1.100                                             
     1     -4.0817478     23  1.100                                             
  local pseudopotential read in
  atomic valenz-charges read in
  non local Contribution for L=           0  read in
    real space projection operators read in
  non local Contribution for L=           0  read in
    real space projection operators read in
  non local Contribution for L=           1  read in
    real space projection operators read in
    PAW grid and wavefunctions read in

   number of l-projection  operators is LMAX  =           3
   number of lm-projection operators is LMMAX =           5

 POTCAR:    PAW_PBE C 08Apr2002                   
   VRHFIN =C: s2p2                                                              
   LEXCH  = PE                                                                  
   EATOM  =   147.1560 eV,   10.8157 Ry                                         
                                                                                
   TITEL  = PAW_PBE C 08Apr2002                                                 
   LULTRA =        F    use ultrasoft PP ?                                      
   IUNSCR =        1    unscreen: 0-lin 1-nonlin 2-no                           
   RPACOR =    1.200    partial core radius                                     
   POMASS =   12.011; ZVAL   =    4.000    mass and valenz                      
   RCORE  =    1.500    outmost cutoff radius                                   
   RWIGS  =    1.630; RWIGS  =    0.863    wigner-seitz radius (au A)           
   ENMAX  =  400.000; ENMIN  =  300.000 eV                                      
   ICORE  =        2    local potential                                         
   LCOR   =        T    correct aug charges                                     
   LPAW   =        T    paw PP                                                  
   EAUG   =  644.873                                                            
   DEXC   =    0.000                                                            
   RMAX   =    1.529    core radius for proj-oper                               
   RAUG   =    1.300    factor for augmentation sphere                          
   RDEP   =    1.501    radius for radial grids                                 
   RDEPT  =    1.300    core radius for aug-charge                              
                                                                                
   Atomic configuration                                                         
    4 entries                                                                   
     n  l   j            E        occ.                                          
     1  0  0.50      -273.3789   2.0000                                         
     2  0  0.50       -13.7508   2.0000                                         
     2  1  0.50        -5.2854   2.0000                                         
     3  2  1.50        -5.4423   0.0000                                         
   Description                                                                  
     l       E           TYP  RCUT    TYP  RCUT                                 
     0    -13.7508458     23  1.200                                             
     0     -8.2022199     23  1.200                                             
     1     -5.2854383     23  1.500                                             
     1     34.0145650     23  1.500                                             
     2     -5.4423304      7  1.500                                             
  local pseudopotential read in
  partial core-charges read in
  partial kinetic energy density read in
  atomic valenz-charges read in
  non local Contribution for L=           0  read in
    real space projection operators read in
  non local Contribution for L=           0  read in
    real space projection operators read in
  non local Contribution for L=           1  read in
    real space projection operators read in
  non local Contribution for L=           1  read in
    real space projection operators read in
    PAW grid and wavefunctions read in

   number of l-projection  operators is LMAX  =           4
   number of lm-projection operators is LMMAX =           8


 ----------------------------------------------------------------------------- 
|                                                                             |
|  ADVICE TO THIS USER RUNNING 'VASP/VAMP'   (HEAR YOUR MASTER'S VOICE ...):  |
|                                                                             |
|      You have a (more or less) 'small supercell' and for smaller cells      |
|      it is recommended  to use the reciprocal-space projection scheme!      |
|      The real space optimization is not  efficient for small cells and it   |
|      is also less accurate ...                                              |
|      Therefore set LREAL=.FALSE. in the  INCAR file                         |
|                                                                             |
 ----------------------------------------------------------------------------- 

 Optimization of the real space projectors (new method)

 maximal supplied QI-value         = 34.20
 optimisation between [QCUT,QGAM] = [  9.92, 20.18] = [ 27.55,114.04] Ry 
 Optimized for a Real-space Cutoff    1.34 Angstroem

   l    n(q)    QCUT    max X(q) W(low)/X(q) W(high)/X(q)  e(spline) 
   0      8     9.919    19.460    0.16E-03    0.20E-03    0.36E-06
   0      8     9.919    12.209    0.16E-03    0.20E-03    0.35E-06
   1      8     9.919     4.655    0.19E-03    0.46E-03    0.40E-06
 Optimization of the real space projectors (new method)

 maximal supplied QI-value         = 25.13
 optimisation between [QCUT,QGAM] = [ 10.05, 20.36] = [ 28.30,116.06] Ry 
 Optimized for a Real-space Cutoff    1.51 Angstroem

   l    n(q)    QCUT    max X(q) W(low)/X(q) W(high)/X(q)  e(spline) 
   0      9    10.053   115.676    0.19E-03    0.21E-03    0.38E-06
   0      9    10.053    87.132    0.19E-03    0.21E-03    0.38E-06
   1      9    10.053     4.429    0.87E-04    0.11E-03    0.39E-06
   1      9    10.053     2.733    0.59E-04    0.62E-04    0.43E-06
  PAW_PBE H 15Jun2001                   :
 energy of atom  1       EATOM=  -12.4884
 kinetic energy error for atom=    0.0098 (will be added to EATOM!!)
  PAW_PBE C 08Apr2002                   :
 energy of atom  2       EATOM= -147.1560
 kinetic energy error for atom=    0.0288 (will be added to EATOM!!)


 POSCAR: POSCAR file written by OVITO            
  positions in cartesian coordinates
  No initial velocities read in
 exchange correlation table for  LEXCH =        8
   RHO(1)=    0.500       N(1)  =     2000
   RHO(2)=  100.500       N(2)  =     4000



--------------------------------------------------------------------------------------------------------


 ion  position               nearest neighbor table
   1  0.593  0.474  0.508-   5 1.10
   2  0.501  0.556  0.374-   5 1.10
   3  0.420  0.451  0.515-   5 1.11
   4  0.508  0.370  0.391-   5 1.11
   5  0.502  0.469  0.444-   1 1.10   2 1.10   4 1.11   3 1.11


IMPORTANT INFORMATION: All symmetrisations will be switched off!
NOSYMM: (Re-)initialisation of all symmetry stuff for point group C_1.




Automatic generation of k-mesh.
 generate k-points for:    1    1    1
Space group operators:
 irot       det(A)        alpha          n_x          n_y          n_z        tau_x        tau_y        tau_z
    1     1.000000     0.000000     1.000000     0.000000     0.000000     0.000000     0.000000     0.000000
 
 Subroutine IBZKPT returns following result:
 ===========================================
 
 Found      1 irreducible k-points:
 
 Following reciprocal coordinates:
            Coordinates               Weight
  0.000000  0.000000  0.000000      1.000000
 
 Following cartesian coordinates:
            Coordinates               Weight
  0.000000  0.000000  0.000000      1.000000
 


--------------------------------------------------------------------------------------------------------




 Dimension of arrays:
   k-points           NKPTS =      1   k-points in BZ     NKDIM =      1   number of bands    NBANDS=      8
   number of dos      NEDOS =    301   number of ions     NIONS =      5
   non local maximal  LDIM  =      4   non local SUM 2l+1 LMDIM =      8
   total plane-waves  NPLWV = 313600
   max r-space proj   IRMAX =   4708   max aug-charges    IRDMAX=   4022
   dimension x,y,z NGX =    70 NGY =   64 NGZ =   70
   dimension x,y,z NGXF=   140 NGYF=  128 NGZF=  140
   support grid    NGXF=   140 NGYF=  128 NGZF=  140
   ions per type =               4   1
   NGX,Y,Z   is equivalent  to a cutoff of  11.68, 10.90, 11.69 a.u.
   NGXF,Y,Z  is equivalent  to a cutoff of  23.36, 21.79, 23.38 a.u.

 SYSTEM =  unknown system                          
 POSCAR =  POSCAR file written by OVITO            

 Startparameter for this run:
   NWRITE =      2    write-flag & timer
   PREC   = a         normal or accurate (medium, high low for compatibility)
   ISTART =      0    job   : 0-new  1-cont  2-samecut
   ICHARG =      2    charge: 1-file 2-atom 10-const
   ISPIN  =      1    spin polarized calculation?
   LNONCOLLINEAR =      F non collinear calculations
   LSORBIT =      F    spin-orbit coupling
   INIWAV =      1    electr: 0-lowe 1-rand  2-diag
   LASPH  =      F    aspherical Exc in radial PAW
   METAGGA=      F    non-selfconsistent MetaGGA calc.

 Electronic Relaxation 1
   ENCUT  =  400.0 eV  29.40 Ry    5.42 a.u.  16.25 15.92 16.24*2*pi/ulx,y,z
   ENINI  =  400.0     initial cutoff
   ENAUG  =  644.9 eV  augmentation charge cutoff
   NELM   =    120;   NELMIN=  4; NELMDL= -5     # of ELM steps 
   EDIFF  = 0.1E-05   stopping-criterion for ELM
   LREAL  =      T    real-space projection
   NLSPLINE    = F    spline interpolate recip. space projectors
   LCOMPAT=      F    compatible to vasp.4.4
   GGA_COMPAT  = T    GGA compatible to vasp.4.4-vasp.4.6
   LMAXPAW     = -100 max onsite density
   LMAXMIX     =    2 max onsite mixed and CHGCAR
   VOSKOWN=      0    Vosko Wilk Nusair interpolation
   ROPT   =   -0.00025  -0.00025
 Ionic relaxation
   EDIFFG = 0.1E-04   stopping-criterion for IOM
   NSW    =      0    number of steps for IOM
   NBLOCK =      1;   KBLOCK =      1    inner block; outer block 
   IBRION =     -1    ionic relax: 0-MD 1-quasi-New 2-CG
   NFREE  =      0    steps in history (QN), initial steepest desc. (CG)
   ISIF   =      2    stress and relaxation
   IWAVPR =     10    prediction:  0-non 1-charg 2-wave 3-comb
   ISYM   =      0    0-nonsym 1-usesym 2-fastsym
   LCORR  =      T    Harris-Foulkes like correction to forces

   POTIM  = 0.5000    time-step for ionic-motion
   TEIN   =    0.0    initial temperature
   TEBEG  =    0.0;   TEEND  =   0.0 temperature during run
   SMASS  =  -3.00    Nose mass-parameter (am)
   estimated Nose-frequenzy (Omega)   =  0.10E-29 period in steps =****** mass=  -0.227E-26a.u.
   SCALEE = 1.0000    scale energy and forces
   NPACO  =    256;   APACO  = 16.0  distance and # of slots for P.C.
   PSTRESS=    0.0 pullay stress

  Mass of Ions in am
   POMASS =   1.00 12.01
  Ionic Valenz
   ZVAL   =   1.00  4.00
  Atomic Wigner-Seitz radii
   RWIGS  =  -1.00 -1.00
  virtual crystal weights 
   VCA    =   1.00  1.00
   NELECT =       8.0000    total number of electrons
   NUPDOWN=      -1.0000    fix difference up-down

 DOS related values:
   EMIN   =  10.00;   EMAX   =-10.00  energy-range for DOS
   EFERMI =   0.00
   ISMEAR =     0;   SIGMA  =   0.05  broadening in eV -4-tet -1-fermi 0-gaus

 Electronic relaxation 2 (details)
   IALGO  =     38    algorithm
   LDIAG  =      T    sub-space diagonalisation (order eigenvalues)
   LSUBROT=      F    optimize rotation matrix (better conditioning)
   TURBO    =      0    0=normal 1=particle mesh
   IRESTART =      0    0=no restart 2=restart with 2 vectors
   NREBOOT  =      0    no. of reboots
   NMIN     =      0    reboot dimension
   EREF     =   0.00    reference energy to select bands
   IMIX   =      4    mixing-type and parameters
     AMIX     =   0.40;   BMIX     =  1.00
     AMIX_MAG =   1.60;   BMIX_MAG =  1.00
     AMIN     =   0.10
     WC   =   100.;   INIMIX=   1;  MIXPRE=   1;  MAXMIX= -45

 Intra band minimization:
   WEIMIN = 0.0000     energy-eigenvalue tresh-hold
   EBREAK =  0.31E-07  absolut break condition
   DEPER  =   0.30     relativ break condition  

   TIME   =   0.40     timestep for ELM

  volume/ion in A,a.u.               =     193.59      1306.43
  Fermi-wavevector in a.u.,A,eV,Ry     =   0.330993  0.625486  1.490603  0.109556
  Thomas-Fermi vector in A             =   1.226770

 Write flags
   LWAVE        =      F    write WAVECAR
   LDOWNSAMPLE  =      F    k-point downsampling of WAVECAR
   LCHARG       =      F    write CHGCAR
   LVTOT        =      F    write LOCPOT, total local potential
   LVHAR        =      F    write LOCPOT, Hartree potential only
   LELF         =      F    write electronic localiz. function (ELF)
   LORBIT       =      0    0 simple, 1 ext, 2 COOP (PROOUT), +10 PAW based schemes


 Dipole corrections
   LMONO  =      F    monopole corrections only (constant potential shift)
   LDIPOL =      F    correct potential (dipole corrections)
   IDIPOL =      0    1-x, 2-y, 3-z, 4-all directions 
   EPSILON=  1.0000000 bulk dielectric constant

 Exchange correlation treatment:
   GGA     =    --    GGA type
   LEXCH   =     8    internal setting for exchange type
   VOSKOWN=      0    Vosko Wilk Nusair interpolation
   LHFCALC =     F    Hartree Fock is set to
   LHFONE  =     F    Hartree Fock one center treatment
   AEXX    =    0.0000 exact exchange contribution

 Linear response parameters
   LEPSILON=     F    determine dielectric tensor
   LRPA    =     F    only Hartree local field effects (RPA)
   LNABLA  =     F    use nabla operator in PAW spheres
   LVEL    =     F    velocity operator in full k-point grid
   LINTERFAST=   F  fast interpolation
   KINTER  =     0    interpolate to denser k-point grid
   CSHIFT  =0.1000    complex shift for real part using Kramers Kronig
   OMEGAMAX=  -1.0    maximum frequency
   DEG_THRESHOLD= 0.2000000E-02 threshold for treating states as degnerate
   RTIME   =   -0.100 relaxation time in fs
  (WPLASMAI=    0.000 imaginary part of plasma frequency in eV, 0.658/RTIME)
   DFIELD  = 0.0000000 0.0000000 0.0000000 field for delta impulse in time

 Orbital magnetization related:
   ORBITALMAG=     F  switch on orbital magnetization
   LCHIMAG   =     F  perturbation theory with respect to B field
   DQ        =  0.001000  dq finite difference perturbation B field
   LLRAUG    =     F  two centre corrections for induced B field



--------------------------------------------------------------------------------------------------------


 Static calculation
 charge density and potential will be updated during run
 non-spin polarized calculation
 Variant of blocked Davidson
 Davidson routine will perform the subspace rotation
 perform sub-space diagonalisation
    after iterative eigenvector-optimisation
 modified Broyden-mixing scheme, WC =      100.0
 initial mixing is a Kerker type mixing with AMIX =  0.4000 and BMIX =      1.0000
 Hartree-type preconditioning will be used
 using additional bands            4
 real space projection scheme for non local part
 use partial core corrections
 calculate Harris-corrections to forces   (improved forces if not selfconsistent)
 use gradient corrections 
 use of overlap-Matrix (Vanderbilt PP)
 Gauss-broadening in eV      SIGMA  =   0.05


--------------------------------------------------------------------------------------------------------


  energy-cutoff  :      400.00
  volume of cell :      967.96
      direct lattice vectors                 reciprocal lattice vectors
     9.962471000  0.000000000  0.000000000     0.100376704 -0.001881646  0.002680513
     0.182997200  9.762013500  0.000000000     0.000000000  0.102437883 -0.000760913
    -0.264403300  0.073931000  9.952962000     0.000000000  0.000000000  0.100472603

  length of vectors
     9.962471000  9.763728568  9.956747836     0.100430117  0.102440709  0.100472603



 k-points in units of 2pi/SCALE and weight: read from INCAR                         
   0.00000000  0.00000000  0.00000000       1.000

 k-points in reciprocal lattice and weights: read from INCAR                         
   0.00000000  0.00000000  0.00000000       1.000

 position of ions in fractional coordinates (direct lattice) 
   0.59335142  0.47395265  0.50832698
   0.50070561  0.55615693  0.37388157
   0.42001279  0.45116418  0.51524351
   0.50841017  0.37020828  0.39097095
   0.50231720  0.46884712  0.44448570

 position of ions in cartesian coordinates  (Angst):
   5.86357500  4.66431330  5.05935910
   4.99118480  5.45685290  3.72122910
   4.13069490  4.44236330  5.12819910
   5.02939460  3.64288310  3.89131900
   4.97259480  4.60975320  4.42394930



--------------------------------------------------------------------------------------------------------


 k-point  1 :   0.0000 0.0000 0.0000  plane waves:   17583

 maximum and minimum number of plane-waves per node :     17583    17583

 maximum number of plane-waves:     17583
 maximum index in each direction: 
   IXMAX=   16   IYMAX=   15   IZMAX=   16
   IXMIN=  -16   IYMIN=  -15   IZMIN=  -16


 serial   3D FFT for wavefunctions
 parallel 3D FFT for charge:
    minimum data exchange during FFTs selected (reduces bandwidth)


 total amount of memory used by VASP MPI-rank0   274671. kBytes
=======================================================================

   base      :      30000. kBytes
   nonlr-proj:       1276. kBytes
   fftplans  :      86584. kBytes
   grid      :     154542. kBytes
   one-center:         15. kBytes
   wavefun   :       2254. kBytes

     INWAV:  cpu time    0.0000: real time    0.0000
 Broyden mixing: mesh for mixing (old mesh)
   NGX = 33   NGY = 31   NGZ = 33
  (NGX  =140   NGY  =128   NGZ  =140)
  gives a total of  33759 points

 initial charge density was supplied:
 charge density of overlapping atoms calculated
 number of electron       8.0000000 magnetization 
 keeping initial charge density in first step


--------------------------------------------------------------------------------------------------------


 Maximum index for non-local projection operator         4543
 Maximum index for augmentation-charges         3716 (set IRDMAX)


--------------------------------------------------------------------------------------------------------


 First call to EWALD:  gamma=   0.179
 Maximum number of real-space cells 3x 3x 3
 Maximum number of reciprocal cells 3x 3x 3

    FEWALD:  cpu time    0.0007: real time    0.0007


--------------------------------------- Iteration      1(   1)  ---------------------------------------


    POTLOK:  cpu time    1.9260: real time    1.9309
    SETDIJ:  cpu time    0.0077: real time    0.0077
     EDDAV:  cpu time    0.6195: real time    0.6210
       DOS:  cpu time    0.0002: real time    0.0002
    --------------------------------------------
      LOOP:  cpu time    2.5533: real time    2.5598

 eigenvalue-minimisations  :    16
 total energy-change (2. order) : 0.5237334E+02  (-0.1667235E+03)
 number of electron       8.0000000 magnetization 
 augmentation part        8.0000000 magnetization 

 Free energy of the ion-electron system (eV)
  ---------------------------------------------------
  alpha Z        PSCENC =         0.25026861
  Ewald energy   TEWEN  =       126.10198590
  -Hartree energ DENC   =      -242.07207435
  -exchange      EXHF   =         0.00000000
  -V(xc)+E(xc)   XCENC  =        21.98144007
  PAW double counting   =       117.05815612     -117.66307307
  entropy T*S    EENTRO =        -0.00000000
  eigenvalues    EBANDS =       -50.32512075
  atomic energy  EATOM  =       197.04175453
  Solvation  Ediel_sol  =         0.00000000
  ---------------------------------------------------
  free energy    TOTEN  =        52.37333707 eV

  energy without entropy =       52.37333707  energy(sigma->0) =       52.37333707


--------------------------------------------------------------------------------------------------------




--------------------------------------- Iteration      1(   2)  ---------------------------------------


     EDDAV:  cpu time    0.9150: real time    0.9174
       DOS:  cpu time    0.0001: real time    0.0001
    --------------------------------------------
      LOOP:  cpu time    0.9151: real time    0.9175

 eigenvalue-minimisations  :    24
 total energy-change (2. order) :-0.6539473E+02  (-0.6539473E+02)
 number of electron       8.0000000 magnetization 
 augmentation part        8.0000000 magnetization 

 Free energy of the ion-electron system (eV)
  ---------------------------------------------------
  alpha Z        PSCENC =         0.25026861
  Ewald energy   TEWEN  =       126.10198590
  -Hartree energ DENC   =      -242.07207435
  -exchange      EXHF   =         0.00000000
  -V(xc)+E(xc)   XCENC  =        21.98144007
  PAW double counting   =       117.05815612     -117.66307307
  entropy T*S    EENTRO =        -0.00000000
  eigenvalues    EBANDS =      -115.71985376
  atomic energy  EATOM  =       197.04175453
  Solvation  Ediel_sol  =         0.00000000
  ---------------------------------------------------
  free energy    TOTEN  =       -13.02139594 eV

  energy without entropy =      -13.02139594  energy(sigma->0) =      -13.02139594


--------------------------------------------------------------------------------------------------------




--------------------------------------- Iteration      1(   3)  ---------------------------------------


     EDDAV:  cpu time    0.6618: real time    0.6633
       DOS:  cpu time    0.0001: real time    0.0001
    --------------------------------------------
      LOOP:  cpu time    0.6619: real time    0.6634

 eigenvalue-minimisations  :    16
 total energy-change (2. order) :-0.1354426E+02  (-0.1354426E+02)
 number of electron       8.0000000 magnetization 
 augmentation part        8.0000000 magnetization 

 Free energy of the ion-electron system (eV)
  ---------------------------------------------------
  alpha Z        PSCENC =         0.25026861
  Ewald energy   TEWEN  =       126.10198590
  -Hartree energ DENC   =      -242.07207435
  -exchange      EXHF   =         0.00000000
  -V(xc)+E(xc)   XCENC  =        21.98144007
  PAW double counting   =       117.05815612     -117.66307307
  entropy T*S    EENTRO =        -0.00000000
  eigenvalues    EBANDS =      -129.26411231
  atomic energy  EATOM  =       197.04175453
  Solvation  Ediel_sol  =         0.00000000
  ---------------------------------------------------
  free energy    TOTEN  =       -26.56565449 eV

  energy without entropy =      -26.56565449  energy(sigma->0) =      -26.56565449


--------------------------------------------------------------------------------------------------------




--------------------------------------- Iteration      1(   4)  ---------------------------------------


     EDDAV:  cpu time    0.9888: real time    0.9912
       DOS:  cpu time    0.0001: real time    0.0001
    --------------------------------------------
      LOOP:  cpu time    0.9890: real time    0.9913

 eigenvalue-minimisations  :    32
 total energy-change (2. order) :-0.7903563E+00  (-0.7903563E+00)
 number of electron       8.0000000 magnetization 
 augmentation part        8.0000000 magnetization 

 Free energy of the ion-electron system (eV)
  ---------------------------------------------------
  alpha Z        PSCENC =         0.25026861
  Ewald energy   TEWEN  =       126.10198590
  -Hartree energ DENC   =      -242.07207435
  -exchange      EXHF   =         0.00000000
  -V(xc)+E(xc)   XCENC  =        21.98144007
  PAW double counting   =       117.05815612     -117.66307307
  entropy T*S    EENTRO =        -0.00000000
  eigenvalues    EBANDS =      -130.05446857
  atomic energy  EATOM  =       197.04175453
  Solvation  Ediel_sol  =         0.00000000
  ---------------------------------------------------
  free energy    TOTEN  =       -27.35601075 eV

  energy without entropy =      -27.35601075  energy(sigma->0) =      -27.35601075


--------------------------------------------------------------------------------------------------------




--------------------------------------- Iteration      1(   5)  ---------------------------------------


     EDDAV:  cpu time    1.2084: real time    1.2114
       DOS:  cpu time    0.0001: real time    0.0001
    CHARGE:  cpu time    0.1339: real time    0.1342
    MIXING:  cpu time    0.0416: real time    0.0417
    --------------------------------------------
      LOOP:  cpu time    1.3840: real time    1.3874

 eigenvalue-minimisations  :    32
 total energy-change (2. order) :-0.5527176E-03  (-0.5527176E-03)
 number of electron       8.0000005 magnetization 
 augmentation part        0.2230489 magnetization 

 Broyden mixing:
  rms(total) = 0.85960E+00    rms(broyden)= 0.85942E+00
  rms(prec ) = 0.12311E+01
  weight for this iteration     100.00

 Free energy of the ion-electron system (eV)
  ---------------------------------------------------
  alpha Z        PSCENC =         0.25026861
  Ewald energy   TEWEN  =       126.10198590
  -Hartree energ DENC   =      -242.07207435
  -exchange      EXHF   =         0.00000000
  -V(xc)+E(xc)   XCENC  =        21.98144007
  PAW double counting   =       117.05815612     -117.66307307
  entropy T*S    EENTRO =        -0.00000000
  eigenvalues    EBANDS =      -130.05502129
  atomic energy  EATOM  =       197.04175453
  Solvation  Ediel_sol  =         0.00000000
  ---------------------------------------------------
  free energy    TOTEN  =       -27.35656347 eV

  energy without entropy =      -27.35656347  energy(sigma->0) =      -27.35656347


--------------------------------------------------------------------------------------------------------




--------------------------------------- Iteration      1(   6)  ---------------------------------------


    POTLOK:  cpu time    2.1066: real time    2.1772
    SETDIJ:  cpu time    0.0075: real time    0.0075
     EDDAV:  cpu time    0.9162: real time    0.9184
       DOS:  cpu time    0.0001: real time    0.0001
    CHARGE:  cpu time    0.1322: real time    0.1326
    MIXING:  cpu time    0.0412: real time    0.0413
    --------------------------------------------
      LOOP:  cpu time    3.2039: real time    3.2771

 eigenvalue-minimisations  :    24
 total energy-change (2. order) : 0.2815639E+01  (-0.8694168E+00)
 number of electron       8.0000005 magnetization 
 augmentation part        0.1953329 magnetization 

 Broyden mixing:
  rms(total) = 0.43902E+00    rms(broyden)= 0.43891E+00
  rms(prec ) = 0.55563E+00
  weight for this iteration     100.00

 eigenvalues of (default mixing * dielectric matrix)
  average eigenvalue GAMMA=   1.1952
  1.1952

 Free energy of the ion-electron system (eV)
  ---------------------------------------------------
  alpha Z        PSCENC =         0.25026861
  Ewald energy   TEWEN  =       126.10198590
  -Hartree energ DENC   =      -261.55171699
  -exchange      EXHF   =         0.00000000
  -V(xc)+E(xc)   XCENC  =        23.16154415
  PAW double counting   =       236.33569235     -237.11213608
  entropy T*S    EENTRO =        -0.00000000
  eigenvalues    EBANDS =      -108.76831674
  atomic energy  EATOM  =       197.04175453
  Solvation  Ediel_sol  =         0.00000000
  ---------------------------------------------------
  free energy    TOTEN  =       -24.54092426 eV

  energy without entropy =      -24.54092426  energy(sigma->0) =      -24.54092426


--------------------------------------------------------------------------------------------------------




--------------------------------------- Iteration      1(   7)  ---------------------------------------


    POTLOK:  cpu time    2.0537: real time    2.0586
    SETDIJ:  cpu time    0.0071: real time    0.0071
     EDDAV:  cpu time    1.0748: real time    1.0773
       DOS:  cpu time    0.0001: real time    0.0001
    CHARGE:  cpu time    0.1098: real time    0.1101
    MIXING:  cpu time    0.0427: real time    0.0428
    --------------------------------------------
      LOOP:  cpu time    3.2881: real time    3.2959

 eigenvalue-minimisations  :    32
 total energy-change (2. order) : 0.4693475E+00  (-0.7070339E-01)
 number of electron       8.0000005 magnetization 
 augmentation part        0.1871298 magnetization 

 Broyden mixing:
  rms(total) = 0.22407E+00    rms(broyden)= 0.22403E+00
  rms(prec ) = 0.27841E+00
  weight for this iteration     100.00

 eigenvalues of (default mixing * dielectric matrix)
  average eigenvalue GAMMA=   1.6948
  1.2474  2.1422

 Free energy of the ion-electron system (eV)
  ---------------------------------------------------
  alpha Z        PSCENC =         0.25026861
  Ewald energy   TEWEN  =       126.10198590
  -Hartree energ DENC   =      -271.41834023
  -exchange      EXHF   =         0.00000000
  -V(xc)+E(xc)   XCENC  =        23.90501757
  PAW double counting   =       360.22352894     -361.02629382
  entropy T*S    EENTRO =        -0.00000000
  eigenvalues    EBANDS =       -99.14949830
  atomic energy  EATOM  =       197.04175453
  Solvation  Ediel_sol  =         0.00000000
  ---------------------------------------------------
  free energy    TOTEN  =       -24.07157679 eV

  energy without entropy =      -24.07157679  energy(sigma->0) =      -24.07157679


--------------------------------------------------------------------------------------------------------




--------------------------------------- Iteration      1(   8)  ---------------------------------------


    POTLOK:  cpu time    2.0942: real time    2.0991
    SETDIJ:  cpu time    0.0076: real time    0.0076
     EDDAV:  cpu time    1.0452: real time    1.0477
       DOS:  cpu time    0.0001: real time    0.0001
    CHARGE:  cpu time    0.1170: real time    0.1173
    MIXING:  cpu time    0.0437: real time    0.0438
    --------------------------------------------
      LOOP:  cpu time    3.3077: real time    3.3156

 eigenvalue-minimisations  :    32
 total energy-change (2. order) : 0.1612490E+00  (-0.1821569E-01)
 number of electron       8.0000005 magnetization 
 augmentation part        0.1846474 magnetization 

 Broyden mixing:
  rms(total) = 0.26936E-01    rms(broyden)= 0.26908E-01
  rms(prec ) = 0.56043E-01
  weight for this iteration     100.00

 eigenvalues of (default mixing * dielectric matrix)
  average eigenvalue GAMMA=   1.5396
  2.1542  1.0982  1.3664

 Free energy of the ion-electron system (eV)
  ---------------------------------------------------
  alpha Z        PSCENC =         0.25026861
  Ewald energy   TEWEN  =       126.10198590
  -Hartree energ DENC   =      -278.35924518
  -exchange      EXHF   =         0.00000000
  -V(xc)+E(xc)   XCENC  =        24.52397276
  PAW double counting   =       469.81902531     -470.60711334
  entropy T*S    EENTRO =        -0.00000000
  eigenvalues    EBANDS =       -92.68097633
  atomic energy  EATOM  =       197.04175453
  Solvation  Ediel_sol  =         0.00000000
  ---------------------------------------------------
  free energy    TOTEN  =       -23.91032774 eV

  energy without entropy =      -23.91032774  energy(sigma->0) =      -23.91032774


--------------------------------------------------------------------------------------------------------




--------------------------------------- Iteration      1(   9)  ---------------------------------------


    POTLOK:  cpu time    2.0665: real time    2.0714
    SETDIJ:  cpu time    0.0075: real time    0.0075
     EDDAV:  cpu time    0.5793: real time    0.5807
       DOS:  cpu time    0.0001: real time    0.0001
    CHARGE:  cpu time    0.1089: real time    0.1091
    MIXING:  cpu time    0.0440: real time    0.0441
    --------------------------------------------
      LOOP:  cpu time    2.8063: real time    2.8129

 eigenvalue-minimisations  :    16
 total energy-change (2. order) : 0.6596233E-02  (-0.3619226E-03)
 number of electron       8.0000005 magnetization 
 augmentation part        0.1841487 magnetization 

 Broyden mixing:
  rms(total) = 0.16526E-01    rms(broyden)= 0.16522E-01
  rms(prec ) = 0.37579E-01
  weight for this iteration     100.00

 eigenvalues of (default mixing * dielectric matrix)
  average eigenvalue GAMMA=   1.8819
  2.8688  2.4786  0.9850  1.1953

 Free energy of the ion-electron system (eV)
  ---------------------------------------------------
  alpha Z        PSCENC =         0.25026861
  Ewald energy   TEWEN  =       126.10198590
  -Hartree energ DENC   =      -279.63538621
  -exchange      EXHF   =         0.00000000
  -V(xc)+E(xc)   XCENC  =        24.59210410
  PAW double counting   =       467.60883678     -468.39493677
  entropy T*S    EENTRO =        -0.00000000
  eigenvalues    EBANDS =       -91.46835845
  atomic energy  EATOM  =       197.04175453
  Solvation  Ediel_sol  =         0.00000000
  ---------------------------------------------------
  free energy    TOTEN  =       -23.90373151 eV

  energy without entropy =      -23.90373151  energy(sigma->0) =      -23.90373151


--------------------------------------------------------------------------------------------------------




--------------------------------------- Iteration      1(  10)  ---------------------------------------


    POTLOK:  cpu time    1.9095: real time    1.9140
    SETDIJ:  cpu time    0.0074: real time    0.0074
     EDDAV:  cpu time    0.6624: real time    0.6639
       DOS:  cpu time    0.0001: real time    0.0001
    CHARGE:  cpu time    0.1238: real time    0.1241
    MIXING:  cpu time    0.0453: real time    0.0454
    --------------------------------------------
      LOOP:  cpu time    2.7484: real time    2.7549

 eigenvalue-minimisations  :    16
 total energy-change (2. order) : 0.8311291E-02  (-0.5480633E-03)
 number of electron       8.0000005 magnetization 
 augmentation part        0.1838982 magnetization 

 Broyden mixing:
  rms(total) = 0.69503E-02    rms(broyden)= 0.69490E-02
  rms(prec ) = 0.16708E-01
  weight for this iteration     100.00

 eigenvalues of (default mixing * dielectric matrix)
  average eigenvalue GAMMA=   1.8517
  3.0538  1.0076  1.2080  2.2459  1.7431

 Free energy of the ion-electron system (eV)
  ---------------------------------------------------
  alpha Z        PSCENC =         0.25026861
  Ewald energy   TEWEN  =       126.10198590
  -Hartree energ DENC   =      -281.26822480
  -exchange      EXHF   =         0.00000000
  -V(xc)+E(xc)   XCENC  =        24.66489808
  PAW double counting   =       458.43918298     -459.22133254
  entropy T*S    EENTRO =        -0.00000000
  eigenvalues    EBANDS =       -89.90395298
  atomic energy  EATOM  =       197.04175453
  Solvation  Ediel_sol  =         0.00000000
  ---------------------------------------------------
  free energy    TOTEN  =       -23.89542022 eV

  energy without entropy =      -23.89542022  energy(sigma->0) =      -23.89542022


--------------------------------------------------------------------------------------------------------




--------------------------------------- Iteration      1(  11)  ---------------------------------------


    POTLOK:  cpu time    1.8456: real time    1.8500
    SETDIJ:  cpu time    0.0075: real time    0.0076
     EDDAV:  cpu time    0.8931: real time    0.8952
       DOS:  cpu time    0.0001: real time    0.0001
    CHARGE:  cpu time    0.1283: real time    0.1286
    MIXING:  cpu time    0.0503: real time    0.0504
    --------------------------------------------
      LOOP:  cpu time    2.9250: real time    2.9320

 eigenvalue-minimisations  :    24
 total energy-change (2. order) :-0.6111835E-02  (-0.2063725E-03)
 number of electron       8.0000005 magnetization 
 augmentation part        0.1836115 magnetization 

 Broyden mixing:
  rms(total) = 0.51406E-02    rms(broyden)= 0.51399E-02
  rms(prec ) = 0.10009E-01
  weight for this iteration     100.00

 eigenvalues of (default mixing * dielectric matrix)
  average eigenvalue GAMMA=   2.0906
  4.2804  2.8035  2.1783  1.2280  1.0268  1.0268

 Free energy of the ion-electron system (eV)
  ---------------------------------------------------
  alpha Z        PSCENC =         0.25026861
  Ewald energy   TEWEN  =       126.10198590
  -Hartree energ DENC   =      -282.00535293
  -exchange      EXHF   =         0.00000000
  -V(xc)+E(xc)   XCENC  =        24.69515291
  PAW double counting   =       460.90689080     -461.68968508
  entropy T*S    EENTRO =        -0.00000000
  eigenvalues    EBANDS =       -89.20254679
  atomic energy  EATOM  =       197.04175453
  Solvation  Ediel_sol  =         0.00000000
  ---------------------------------------------------
  free energy    TOTEN  =       -23.90153206 eV

  energy without entropy =      -23.90153206  energy(sigma->0) =      -23.90153206


--------------------------------------------------------------------------------------------------------




--------------------------------------- Iteration      1(  12)  ---------------------------------------


    POTLOK:  cpu time    1.8167: real time    1.8210
    SETDIJ:  cpu time    0.0073: real time    0.0073
     EDDAV:  cpu time    0.5976: real time    0.5991
       DOS:  cpu time    0.0001: real time    0.0001
    CHARGE:  cpu time    0.1155: real time    0.1157
    MIXING:  cpu time    0.0499: real time    0.0501
    --------------------------------------------
      LOOP:  cpu time    2.5872: real time    2.5934

 eigenvalue-minimisations  :    16
 total energy-change (2. order) :-0.4430731E-02  (-0.5426751E-04)
 number of electron       8.0000005 magnetization 
 augmentation part        0.1836701 magnetization 

 Broyden mixing:
  rms(total) = 0.23318E-02    rms(broyden)= 0.23317E-02
  rms(prec ) = 0.51852E-02
  weight for this iteration     100.00

 eigenvalues of (default mixing * dielectric matrix)
  average eigenvalue GAMMA=   2.3341
  5.1118  3.2222  2.6912  2.0352  1.2217  1.0284  1.0284

 Free energy of the ion-electron system (eV)
  ---------------------------------------------------
  alpha Z        PSCENC =         0.25026861
  Ewald energy   TEWEN  =       126.10198590
  -Hartree energ DENC   =      -281.92582400
  -exchange      EXHF   =         0.00000000
  -V(xc)+E(xc)   XCENC  =        24.67486141
  PAW double counting   =       457.42915815     -458.21190283
  entropy T*S    EENTRO =        -0.00000000
  eigenvalues    EBANDS =       -89.26626455
  atomic energy  EATOM  =       197.04175453
  Solvation  Ediel_sol  =         0.00000000
  ---------------------------------------------------
  free energy    TOTEN  =       -23.90596279 eV

  energy without entropy =      -23.90596279  energy(sigma->0) =      -23.90596279


--------------------------------------------------------------------------------------------------------




--------------------------------------- Iteration      1(  13)  ---------------------------------------


    POTLOK:  cpu time    1.8200: real time    1.8244
    SETDIJ:  cpu time    0.0074: real time    0.0074
     EDDAV:  cpu time    0.7813: real time    0.7832
       DOS:  cpu time    0.0001: real time    0.0001
    CHARGE:  cpu time    0.1045: real time    0.1048
    MIXING:  cpu time    0.0463: real time    0.0464
    --------------------------------------------
      LOOP:  cpu time    2.7596: real time    2.7661

 eigenvalue-minimisations  :    24
 total energy-change (2. order) :-0.4035147E-02  (-0.9566314E-04)
 number of electron       8.0000005 magnetization 
 augmentation part        0.1836245 magnetization 

 Broyden mixing:
  rms(total) = 0.19943E-02    rms(broyden)= 0.19941E-02
  rms(prec ) = 0.29300E-02
  weight for this iteration     100.00

 eigenvalues of (default mixing * dielectric matrix)
  average eigenvalue GAMMA=   2.2633
  5.7906  3.5033  2.4659  2.1355  1.2376  1.0963  0.9988  0.8781

 Free energy of the ion-electron system (eV)
  ---------------------------------------------------
  alpha Z        PSCENC =         0.25026861
  Ewald energy   TEWEN  =       126.10198590
  -Hartree energ DENC   =      -282.04124405
  -exchange      EXHF   =         0.00000000
  -V(xc)+E(xc)   XCENC  =        24.67711914
  PAW double counting   =       459.47284248     -460.25511418
  entropy T*S    EENTRO =        -0.00000000
  eigenvalues    EBANDS =       -89.15761036
  atomic energy  EATOM  =       197.04175453
  Solvation  Ediel_sol  =         0.00000000
  ---------------------------------------------------
  free energy    TOTEN  =       -23.90999793 eV

  energy without entropy =      -23.90999793  energy(sigma->0) =      -23.90999793


--------------------------------------------------------------------------------------------------------




--------------------------------------- Iteration      1(  14)  ---------------------------------------


    POTLOK:  cpu time    1.7807: real time    1.7851
    SETDIJ:  cpu time    0.0075: real time    0.0075
     EDDAV:  cpu time    1.0620: real time    1.0645
       DOS:  cpu time    0.0001: real time    0.0001
    CHARGE:  cpu time    0.1030: real time    0.1033
    MIXING:  cpu time    0.0507: real time    0.0509
    --------------------------------------------
      LOOP:  cpu time    3.0041: real time    3.0114

 eigenvalue-minimisations  :    32
 total energy-change (2. order) :-0.5415089E-03  (-0.4369359E-05)
 number of electron       8.0000005 magnetization 
 augmentation part        0.1836243 magnetization 

 Broyden mixing:
  rms(total) = 0.63009E-03    rms(broyden)= 0.62998E-03
  rms(prec ) = 0.14280E-02
  weight for this iteration     100.00

 eigenvalues of (default mixing * dielectric matrix)
  average eigenvalue GAMMA=   2.5315
  6.8480  4.2904  3.0010  2.3363  1.9590  0.9967  0.9967  1.2451  1.1104

 Free energy of the ion-electron system (eV)
  ---------------------------------------------------
  alpha Z        PSCENC =         0.25026861
  Ewald energy   TEWEN  =       126.10198590
  -Hartree energ DENC   =      -281.97979690
  -exchange      EXHF   =         0.00000000
  -V(xc)+E(xc)   XCENC  =        24.67084007
  PAW double counting   =       458.53545449     -459.31794094
  entropy T*S    EENTRO =        -0.00000000
  eigenvalues    EBANDS =       -89.21310519
  atomic energy  EATOM  =       197.04175453
  Solvation  Ediel_sol  =         0.00000000
  ---------------------------------------------------
  free energy    TOTEN  =       -23.91053944 eV

  energy without entropy =      -23.91053944  energy(sigma->0) =      -23.91053944


--------------------------------------------------------------------------------------------------------




--------------------------------------- Iteration      1(  15)  ---------------------------------------


    POTLOK:  cpu time    1.7697: real time    1.7739
    SETDIJ:  cpu time    0.0074: real time    0.0074
     EDDAV:  cpu time    0.6091: real time    0.6106
       DOS:  cpu time    0.0001: real time    0.0001
    CHARGE:  cpu time    0.1078: real time    0.1081
    MIXING:  cpu time    0.0525: real time    0.0526
    --------------------------------------------
      LOOP:  cpu time    2.5467: real time    2.5528

 eigenvalue-minimisations  :    16
 total energy-change (2. order) :-0.6091058E-03  (-0.7213880E-05)
 number of electron       8.0000005 magnetization 
 augmentation part        0.1836299 magnetization 

 Broyden mixing:
  rms(total) = 0.43478E-03    rms(broyden)= 0.43477E-03
  rms(prec ) = 0.60646E-03
  weight for this iteration     100.00

 eigenvalues of (default mixing * dielectric matrix)
  average eigenvalue GAMMA=   2.4312
  7.1601  4.5280  2.8118  2.4415  2.0258  1.2412  1.1229  1.0046  0.9879  0.9879

 Free energy of the ion-electron system (eV)
  ---------------------------------------------------
  alpha Z        PSCENC =         0.25026861
  Ewald energy   TEWEN  =       126.10198590
  -Hartree energ DENC   =      -281.97348534
  -exchange      EXHF   =         0.00000000
  -V(xc)+E(xc)   XCENC  =        24.66977707
  PAW double counting   =       458.25640387     -459.03880322
  entropy T*S    EENTRO =        -0.00000000
  eigenvalues    EBANDS =       -89.21904998
  atomic energy  EATOM  =       197.04175453
  Solvation  Ediel_sol  =         0.00000000
  ---------------------------------------------------
  free energy    TOTEN  =       -23.91114855 eV

  energy without entropy =      -23.91114855  energy(sigma->0) =      -23.91114855


--------------------------------------------------------------------------------------------------------




--------------------------------------- Iteration      1(  16)  ---------------------------------------


    POTLOK:  cpu time    1.6538: real time    1.6577
    SETDIJ:  cpu time    0.0073: real time    0.0074
     EDDAV:  cpu time    1.0435: real time    1.0460
       DOS:  cpu time    0.0001: real time    0.0001
    CHARGE:  cpu time    0.1156: real time    0.1159
    MIXING:  cpu time    0.0492: real time    0.0493
    --------------------------------------------
      LOOP:  cpu time    2.8694: real time    2.8762

 eigenvalue-minimisations  :    32
 total energy-change (2. order) :-0.3796502E-04  (-0.1110628E-06)
 number of electron       8.0000005 magnetization 
 augmentation part        0.1836259 magnetization 

 Broyden mixing:
  rms(total) = 0.23297E-03    rms(broyden)= 0.23296E-03
  rms(prec ) = 0.38442E-03
  weight for this iteration     100.00

 eigenvalues of (default mixing * dielectric matrix)
  average eigenvalue GAMMA=   2.6314
  8.0579  4.7882  3.7587  2.4801  2.4801  2.0221  1.2597  1.1390  0.9744  0.9744
  1.0112

 Free energy of the ion-electron system (eV)
  ---------------------------------------------------
  alpha Z        PSCENC =         0.25026861
  Ewald energy   TEWEN  =       126.10198590
  -Hartree energ DENC   =      -281.97703266
  -exchange      EXHF   =         0.00000000
  -V(xc)+E(xc)   XCENC  =        24.66992797
  PAW double counting   =       458.32071743     -459.10316330
  entropy T*S    EENTRO =        -0.00000000
  eigenvalues    EBANDS =       -89.21564501
  atomic energy  EATOM  =       197.04175453
  Solvation  Ediel_sol  =         0.00000000
  ---------------------------------------------------
  free energy    TOTEN  =       -23.91118651 eV

  energy without entropy =      -23.91118651  energy(sigma->0) =      -23.91118651


--------------------------------------------------------------------------------------------------------




--------------------------------------- Iteration      1(  17)  ---------------------------------------


    POTLOK:  cpu time    1.6713: real time    1.6753
    SETDIJ:  cpu time    0.0068: real time    0.0068
     EDDAV:  cpu time    0.5194: real time    0.5206
       DOS:  cpu time    0.0001: real time    0.0001
    CHARGE:  cpu time    0.1050: real time    0.1053
    MIXING:  cpu time    0.0439: real time    0.0440
    --------------------------------------------
      LOOP:  cpu time    2.3466: real time    2.3522

 eigenvalue-minimisations  :    16
 total energy-change (2. order) :-0.6312243E-04  (-0.3798610E-06)
 number of electron       8.0000005 magnetization 
 augmentation part        0.1836185 magnetization 

 Broyden mixing:
  rms(total) = 0.91876E-04    rms(broyden)= 0.91860E-04
  rms(prec ) = 0.14804E-03
  weight for this iteration     100.00

 eigenvalues of (default mixing * dielectric matrix)
  average eigenvalue GAMMA=   2.5220
  8.2347  5.0960  3.6516  2.6399  2.3154  1.9133  1.2258  1.2258  1.0164  1.0164
  0.9643  0.9643

 Free energy of the ion-electron system (eV)
  ---------------------------------------------------
  alpha Z        PSCENC =         0.25026861
  Ewald energy   TEWEN  =       126.10198590
  -Hartree energ DENC   =      -281.99460166
  -exchange      EXHF   =         0.00000000
  -V(xc)+E(xc)   XCENC  =        24.67095491
  PAW double counting   =       458.37893334     -459.16141200
  entropy T*S    EENTRO =        -0.00000000
  eigenvalues    EBANDS =       -89.19913328
  atomic energy  EATOM  =       197.04175453
  Solvation  Ediel_sol  =         0.00000000
  ---------------------------------------------------
  free energy    TOTEN  =       -23.91124964 eV

  energy without entropy =      -23.91124964  energy(sigma->0) =      -23.91124964


--------------------------------------------------------------------------------------------------------




--------------------------------------- Iteration      1(  18)  ---------------------------------------


    POTLOK:  cpu time    1.7468: real time    1.7526
    SETDIJ:  cpu time    0.0064: real time    0.0064
     EDDAV:  cpu time    0.8636: real time    0.8657
       DOS:  cpu time    0.0001: real time    0.0001
    CHARGE:  cpu time    0.1045: real time    0.1047
    MIXING:  cpu time    0.0469: real time    0.0471
    --------------------------------------------
      LOOP:  cpu time    2.7683: real time    2.7765

 eigenvalue-minimisations  :    32
 total energy-change (2. order) :-0.2058741E-05  (-0.2457229E-07)
 number of electron       8.0000005 magnetization 
 augmentation part        0.1836227 magnetization 

 Broyden mixing:
  rms(total) = 0.32814E-04    rms(broyden)= 0.32804E-04
  rms(prec ) = 0.57121E-04
  weight for this iteration     100.00

 eigenvalues of (default mixing * dielectric matrix)
  average eigenvalue GAMMA=   2.5489
  8.3117  5.2475  3.6719  2.5050  2.5050  2.4370  2.0051  1.2750  1.2205  1.0098
  1.0098  0.9811  0.9567

 Free energy of the ion-electron system (eV)
  ---------------------------------------------------
  alpha Z        PSCENC =         0.25026861
  Ewald energy   TEWEN  =       126.10198590
  -Hartree energ DENC   =      -281.98994026
  -exchange      EXHF   =         0.00000000
  -V(xc)+E(xc)   XCENC  =        24.67069049
  PAW double counting   =       458.37056585     -459.15302026
  entropy T*S    EENTRO =        -0.00000000
  eigenvalues    EBANDS =       -89.20355657
  atomic energy  EATOM  =       197.04175453
  Solvation  Ediel_sol  =         0.00000000
  ---------------------------------------------------
  free energy    TOTEN  =       -23.91125169 eV

  energy without entropy =      -23.91125169  energy(sigma->0) =      -23.91125169


--------------------------------------------------------------------------------------------------------




--------------------------------------- Iteration      1(  19)  ---------------------------------------


    POTLOK:  cpu time    1.5942: real time    1.5984
    SETDIJ:  cpu time    0.0069: real time    0.0069
     EDDAV:  cpu time    0.4811: real time    0.4839
       DOS:  cpu time    0.0001: real time    0.0001
    CHARGE:  cpu time    0.1106: real time    0.1109
    MIXING:  cpu time    0.0484: real time    0.0485
    --------------------------------------------
      LOOP:  cpu time    2.2413: real time    2.2486

 eigenvalue-minimisations  :    16
 total energy-change (2. order) :-0.4139729E-05  (-0.1294847E-07)
 number of electron       8.0000005 magnetization 
 augmentation part        0.1836237 magnetization 

 Broyden mixing:
  rms(total) = 0.26419E-04    rms(broyden)= 0.26415E-04
  rms(prec ) = 0.38598E-04
  weight for this iteration     100.00

 eigenvalues of (default mixing * dielectric matrix)
  average eigenvalue GAMMA=   2.4908
  8.3748  5.3544  4.0375  3.0315  2.5127  2.2447  1.8011  1.2977  1.2799  1.0340
  1.0028  1.0028  0.9487  0.9487

 Free energy of the ion-electron system (eV)
  ---------------------------------------------------
  alpha Z        PSCENC =         0.25026861
  Ewald energy   TEWEN  =       126.10198590
  -Hartree energ DENC   =      -281.98909180
  -exchange      EXHF   =         0.00000000
  -V(xc)+E(xc)   XCENC  =        24.67061642
  PAW double counting   =       458.37787798     -459.16031668
  entropy T*S    EENTRO =        -0.00000000
  eigenvalues    EBANDS =       -89.20435080
  atomic energy  EATOM  =       197.04175453
  Solvation  Ediel_sol  =         0.00000000
  ---------------------------------------------------
  free energy    TOTEN  =       -23.91125583 eV

  energy without entropy =      -23.91125583  energy(sigma->0) =      -23.91125583


--------------------------------------------------------------------------------------------------------




--------------------------------------- Iteration      1(  20)  ---------------------------------------


    POTLOK:  cpu time    1.6292: real time    1.6334
    SETDIJ:  cpu time    0.0065: real time    0.0065
     EDDAV:  cpu time    0.7738: real time    0.7756
       DOS:  cpu time    0.0001: real time    0.0001
    --------------------------------------------
      LOOP:  cpu time    2.4095: real time    2.4155

 eigenvalue-minimisations  :    32
 total energy-change (2. order) :-0.3548285E-06  (-0.1401300E-08)
 number of electron       8.0000005 magnetization 
 augmentation part        0.1836237 magnetization 

 Free energy of the ion-electron system (eV)
  ---------------------------------------------------
  alpha Z        PSCENC =         0.25026861
  Ewald energy   TEWEN  =       126.10198590
  -Hartree energ DENC   =      -281.98974095
  -exchange      EXHF   =         0.00000000
  -V(xc)+E(xc)   XCENC  =        24.67064509
  PAW double counting   =       458.38038290     -459.16282761
  entropy T*S    EENTRO =        -0.00000000
  eigenvalues    EBANDS =       -89.20372466
  atomic energy  EATOM  =       197.04175453
  Solvation  Ediel_sol  =         0.00000000
  ---------------------------------------------------
  free energy    TOTEN  =       -23.91125619 eV

  energy without entropy =      -23.91125619  energy(sigma->0) =      -23.91125619


--------------------------------------------------------------------------------------------------------




 average (electrostatic) potential at core
  the test charge radii are     0.5201  0.6991
  (the norm of the test charge is              1.0000)
       1 -41.4476       2 -41.6151       3 -41.4595       4 -41.3843       5 -58.0005



 E-fermi :  -8.5536     XC(G=0):  -0.7239     alpha+bet : -0.2176


 k-point     1 :       0.0000    0.0000    0.0000
  band No.  band energies     occupation 
      1     -16.8654      2.00000
      2      -9.7991      2.00000
      3      -9.1324      2.00000
      4      -8.8050      2.00000
      5      -0.5476      0.00000
      6       1.0107      0.00000
      7       1.0209      0.00000
      8       1.0648      0.00000


--------------------------------------------------------------------------------------------------------


 soft charge-density along one line, spin component           1
         0         1         2         3         4         5         6         7         8         9
 total charge-density along one line

 pseudopotential strength for first ion, spin component:           1
 -2.340  -4.032   0.000   0.001   0.001
 -4.032  -6.862   0.000   0.003   0.004
  0.000   0.000  -0.339   0.000   0.000
  0.001   0.003   0.000  -0.337   0.002
  0.001   0.004   0.000   0.002  -0.336
 total augmentation occupancy for first ion, spin component:           1
  3.553  -0.640  -0.020  -0.250  -0.350
 -0.640   0.131   0.004   0.046   0.065
 -0.020   0.004   0.009   0.002   0.001
 -0.250   0.046   0.002   0.024   0.020
 -0.350   0.065   0.001   0.020   0.038


------------------------ aborting loop because EDIFF is reached ----------------------------------------


    CHARGE:  cpu time    0.1010: real time    0.1012
    FORLOC:  cpu time    0.1121: real time    0.1124
    FORNL :  cpu time    0.1639: real time    0.1643
    STRESS:  cpu time    0.5991: real time    0.6005
    FORCOR:  cpu time    1.6512: real time    1.6552
    FORHAR:  cpu time    0.5265: real time    0.5278
    MIXING:  cpu time    0.0499: real time    0.0501
    OFIELD:  cpu time    0.0000: real time    0.0000

  FORCE on cell =-STRESS in cart. coord.  units (eV):
  Direction    XX          YY          ZZ          XY          YZ          ZX
  --------------------------------------------------------------------------------------
  Alpha Z     0.25027     0.25027     0.25027
  Ewald      35.73404    46.40653    43.96138     7.66521    -7.34200    -2.65892
  Hartree    91.63926    96.36343    93.98730     2.40660    -1.72880    -1.13651
  E(xc)     -27.15947   -27.11719   -27.11546     0.04163    -0.03875    -0.01630
  Local    -187.14760  -201.13440  -196.34860    -8.84533     7.66782     3.52845
  n-local   -15.78381   -15.72192   -15.72915     0.01712    -0.08232    -0.06500
  augment     0.12350     0.11408     0.11451    -0.00820     0.00920     0.00099
  Kinetic   102.19886    99.92644   100.05643    -1.90812     2.09114     0.75238
  Fock        0.00000     0.00000     0.00000     0.00000     0.00000     0.00000
  -------------------------------------------------------------------------------------
  Total      -0.14496    -0.91276    -0.82332    -0.63110     0.57628     0.40510
  in kB      -0.23994    -1.51081    -1.36277    -1.04459     0.95387     0.67052
  external pressure =       -1.04 kB  Pullay stress =        0.00 kB


 VOLUME and BASIS-vectors are now :
 -----------------------------------------------------------------------------
  energy-cutoff  :      400.00
  volume of cell :      967.96
      direct lattice vectors                 reciprocal lattice vectors
     9.962471000  0.000000000  0.000000000     0.100376704 -0.001881646  0.002680513
     0.182997200  9.762013500  0.000000000     0.000000000  0.102437883 -0.000760913
    -0.264403300  0.073931000  9.952962000     0.000000000  0.000000000  0.100472603

  length of vectors
     9.962471000  9.763728568  9.956747836     0.100430117  0.102440709  0.100472603


 FORCES acting on ions
    electron-ion (+dipol)            ewald-force                    non-local-force                 convergence-correction
 -----------------------------------------------------------------------------------------------
   -.430E+02 -.329E+01 -.306E+02   0.477E+02 0.362E+01 0.338E+02   -.445E+01 -.254E+00 -.321E+01   0.218E-04 -.334E-05 0.257E-04
   -.548E+00 -.404E+02 0.334E+02   0.193E+00 0.445E+02 -.366E+02   -.223E+00 -.419E+01 0.352E+01   -.252E-05 0.140E-04 -.160E-04
   0.399E+02 0.722E+01 -.328E+02   -.439E+02 -.734E+01 0.357E+02   0.393E+01 0.974E+00 -.341E+01   -.162E-04 0.188E-05 0.227E-04
   -.241E+01 0.456E+02 0.258E+02   0.282E+01 -.500E+02 -.286E+02   -.239E+00 0.471E+01 0.251E+01   0.459E-05 -.181E-04 -.112E-04
   0.638E+01 -.887E+01 0.416E+01   -.678E+01 0.925E+01 -.437E+01   0.657E+00 -.147E+01 0.659E+00   0.268E-04 -.486E-04 0.928E-04
 -----------------------------------------------------------------------------------------------
   0.325E+00 0.221E+00 -.717E-01   0.000E+00 0.000E+00 0.000E+00   -.325E+00 -.221E+00 0.710E-01   0.345E-04 -.541E-04 0.114E-03


 POSITION                                       TOTAL-FORCE (eV/Angst)
 -----------------------------------------------------------------------------------
      5.86357      4.66431      5.05936         0.209925      0.076630     -0.009093
      4.99118      5.45685      3.72123        -0.578045     -0.131671      0.309811
      4.13069      4.44236      5.12820        -0.058117      0.852003     -0.503109
      5.02939      3.64288      3.89132         0.172269      0.294403     -0.245798
      4.97259      4.60975      4.42395         0.253968     -1.091365      0.448189
 -----------------------------------------------------------------------------------
    total drift:                                0.000361     -0.000115     -0.000594


--------------------------------------------------------------------------------------------------------



  FREE ENERGIE OF THE ION-ELECTRON SYSTEM (eV)
  ---------------------------------------------------
  free  energy   TOTEN  =       -23.91125619 eV

  energy  without entropy=      -23.91125619  energy(sigma->0) =      -23.91125619



--------------------------------------------------------------------------------------------------------


    POTLOK:  cpu time    1.6608: real time    1.6651


--------------------------------------------------------------------------------------------------------


     LOOP+:  cpu time   53.1940: real time   53.4253
    4ORBIT:  cpu time    0.0000: real time    0.0000

 total amount of memory used by VASP MPI-rank0   274671. kBytes
=======================================================================

   base      :      30000. kBytes
   nonlr-proj:       1276. kBytes
   fftplans  :      86584. kBytes
   grid      :     154542. kBytes
   one-center:         15. kBytes
   wavefun   :       2254. kBytes

  
  
 General timing and accounting informations for this job:
 ========================================================
  
                  Total CPU time used (sec):       55.060
                            User time (sec):       53.442
                          System time (sec):        1.618
                         Elapsed time (sec):       55.310
  
                   Maximum memory used (kb):      389108.
                   Average memory used (kb):           0.
  
                          Minor page faults:       239348
                          Major page faults:            0
                 Voluntary context switches:          135
