 vasp.5.4.4.18Apr17-6-g9f103f2a35 (build Jul 12 2018 13:43:46) complex           
 executed on             LinuxGNU date 2019.06.24  13:57:23
 running on    1 total cores
 distrk:  each k-point on    1 cores,    1 groups
 distr:  one band on NCORES_PER_BAND=   1 cores,    1 groups


--------------------------------------------------------------------------------------------------------


 INCAR:
 POTCAR:    PAW_PBE H 15Jun2001                   
 POTCAR:    PAW_PBE C 08Apr2002                   
 POTCAR:    PAW_PBE H 15Jun2001                   
   VRHFIN =H: ultrasoft test                                                    
   LEXCH  = PE                                                                  
   EATOM  =    12.4884 eV,    0.9179 Ry                                         
                                                                                
   TITEL  = PAW_PBE H 15Jun2001                                                 
   LULTRA =        F    use ultrasoft PP ?                                      
   IUNSCR =        0    unscreen: 0-lin 1-nonlin 2-no                           
   RPACOR =    0.000    partial core radius                                     
   POMASS =    1.000; ZVAL   =    1.000    mass and valenz                      
   RCORE  =    1.100    outmost cutoff radius                                   
   RWIGS  =    0.700; RWIGS  =    0.370    wigner-seitz radius (au A)           
   ENMAX  =  250.000; ENMIN  =  200.000 eV                                      
   RCLOC  =    0.701    cutoff for local pot                                    
   LCOR   =        T    correct aug charges                                     
   LPAW   =        T    paw PP                                                  
   EAUG   =  400.000                                                            
   RMAX   =    1.123    core radius for proj-oper                               
   RAUG   =    1.200    factor for augmentation sphere                          
   RDEP   =    1.112    radius for radial grids                                 
   RDEPT  =    0.926    core radius for aug-charge                              
                                                                                
   Atomic configuration                                                         
    2 entries                                                                   
     n  l   j            E        occ.                                          
     1  0  0.50        -6.4927   1.0000                                         
     2  1  0.50        -3.4015   0.0000                                         
   Description                                                                  
     l       E           TYP  RCUT    TYP  RCUT                                 
     0     -6.4927494     23  1.100                                             
     0      6.8029130     23  1.100                                             
     1     -4.0817478     23  1.100                                             
  local pseudopotential read in
  atomic valenz-charges read in
  non local Contribution for L=           0  read in
    real space projection operators read in
  non local Contribution for L=           0  read in
    real space projection operators read in
  non local Contribution for L=           1  read in
    real space projection operators read in
    PAW grid and wavefunctions read in

   number of l-projection  operators is LMAX  =           3
   number of lm-projection operators is LMMAX =           5

 POTCAR:    PAW_PBE C 08Apr2002                   
   VRHFIN =C: s2p2                                                              
   LEXCH  = PE                                                                  
   EATOM  =   147.1560 eV,   10.8157 Ry                                         
                                                                                
   TITEL  = PAW_PBE C 08Apr2002                                                 
   LULTRA =        F    use ultrasoft PP ?                                      
   IUNSCR =        1    unscreen: 0-lin 1-nonlin 2-no                           
   RPACOR =    1.200    partial core radius                                     
   POMASS =   12.011; ZVAL   =    4.000    mass and valenz                      
   RCORE  =    1.500    outmost cutoff radius                                   
   RWIGS  =    1.630; RWIGS  =    0.863    wigner-seitz radius (au A)           
   ENMAX  =  400.000; ENMIN  =  300.000 eV                                      
   ICORE  =        2    local potential                                         
   LCOR   =        T    correct aug charges                                     
   LPAW   =        T    paw PP                                                  
   EAUG   =  644.873                                                            
   DEXC   =    0.000                                                            
   RMAX   =    1.529    core radius for proj-oper                               
   RAUG   =    1.300    factor for augmentation sphere                          
   RDEP   =    1.501    radius for radial grids                                 
   RDEPT  =    1.300    core radius for aug-charge                              
                                                                                
   Atomic configuration                                                         
    4 entries                                                                   
     n  l   j            E        occ.                                          
     1  0  0.50      -273.3789   2.0000                                         
     2  0  0.50       -13.7508   2.0000                                         
     2  1  0.50        -5.2854   2.0000                                         
     3  2  1.50        -5.4423   0.0000                                         
   Description                                                                  
     l       E           TYP  RCUT    TYP  RCUT                                 
     0    -13.7508458     23  1.200                                             
     0     -8.2022199     23  1.200                                             
     1     -5.2854383     23  1.500                                             
     1     34.0145650     23  1.500                                             
     2     -5.4423304      7  1.500                                             
  local pseudopotential read in
  partial core-charges read in
  partial kinetic energy density read in
  atomic valenz-charges read in
  non local Contribution for L=           0  read in
    real space projection operators read in
  non local Contribution for L=           0  read in
    real space projection operators read in
  non local Contribution for L=           1  read in
    real space projection operators read in
  non local Contribution for L=           1  read in
    real space projection operators read in
    PAW grid and wavefunctions read in

   number of l-projection  operators is LMAX  =           4
   number of lm-projection operators is LMMAX =           8


 ----------------------------------------------------------------------------- 
|                                                                             |
|  ADVICE TO THIS USER RUNNING 'VASP/VAMP'   (HEAR YOUR MASTER'S VOICE ...):  |
|                                                                             |
|      You have a (more or less) 'small supercell' and for smaller cells      |
|      it is recommended  to use the reciprocal-space projection scheme!      |
|      The real space optimization is not  efficient for small cells and it   |
|      is also less accurate ...                                              |
|      Therefore set LREAL=.FALSE. in the  INCAR file                         |
|                                                                             |
 ----------------------------------------------------------------------------- 

 Optimization of the real space projectors (new method)

 maximal supplied QI-value         = 34.20
 optimisation between [QCUT,QGAM] = [  9.92, 20.18] = [ 27.55,114.04] Ry 
 Optimized for a Real-space Cutoff    1.34 Angstroem

   l    n(q)    QCUT    max X(q) W(low)/X(q) W(high)/X(q)  e(spline) 
   0      8     9.919    19.460    0.16E-03    0.20E-03    0.36E-06
   0      8     9.919    12.209    0.16E-03    0.20E-03    0.35E-06
   1      8     9.919     4.655    0.19E-03    0.46E-03    0.40E-06
 Optimization of the real space projectors (new method)

 maximal supplied QI-value         = 25.13
 optimisation between [QCUT,QGAM] = [ 10.05, 20.36] = [ 28.30,116.06] Ry 
 Optimized for a Real-space Cutoff    1.51 Angstroem

   l    n(q)    QCUT    max X(q) W(low)/X(q) W(high)/X(q)  e(spline) 
   0      9    10.053   115.676    0.19E-03    0.21E-03    0.38E-06
   0      9    10.053    87.132    0.19E-03    0.21E-03    0.38E-06
   1      9    10.053     4.429    0.87E-04    0.11E-03    0.39E-06
   1      9    10.053     2.733    0.59E-04    0.62E-04    0.43E-06
  PAW_PBE H 15Jun2001                   :
 energy of atom  1       EATOM=  -12.4884
 kinetic energy error for atom=    0.0098 (will be added to EATOM!!)
  PAW_PBE C 08Apr2002                   :
 energy of atom  2       EATOM= -147.1560
 kinetic energy error for atom=    0.0288 (will be added to EATOM!!)


 POSCAR: POSCAR file written by OVITO            
  positions in cartesian coordinates
  No initial velocities read in
 exchange correlation table for  LEXCH =        8
   RHO(1)=    0.500       N(1)  =     2000
   RHO(2)=  100.500       N(2)  =     4000



--------------------------------------------------------------------------------------------------------


 ion  position               nearest neighbor table
   1  0.611  0.464  0.489-   5 1.13
   2  0.501  0.416  0.345-   5 1.11
   3  0.474  0.568  0.431-   5 1.03
   4  0.430  0.414  0.520-   5 1.12
   5  0.503  0.468  0.445-   3 1.03   2 1.11   4 1.12   1 1.13


IMPORTANT INFORMATION: All symmetrisations will be switched off!
NOSYMM: (Re-)initialisation of all symmetry stuff for point group C_1.




Automatic generation of k-mesh.
 generate k-points for:    1    1    1
Space group operators:
 irot       det(A)        alpha          n_x          n_y          n_z        tau_x        tau_y        tau_z
    1     1.000000     0.000000     1.000000     0.000000     0.000000     0.000000     0.000000     0.000000
 
 Subroutine IBZKPT returns following result:
 ===========================================
 
 Found      1 irreducible k-points:
 
 Following reciprocal coordinates:
            Coordinates               Weight
  0.000000  0.000000  0.000000      1.000000
 
 Following cartesian coordinates:
            Coordinates               Weight
  0.000000  0.000000  0.000000      1.000000
 


--------------------------------------------------------------------------------------------------------




 Dimension of arrays:
   k-points           NKPTS =      1   k-points in BZ     NKDIM =      1   number of bands    NBANDS=      8
   number of dos      NEDOS =    301   number of ions     NIONS =      5
   non local maximal  LDIM  =      4   non local SUM 2l+1 LMDIM =      8
   total plane-waves  NPLWV = 262144
   max r-space proj   IRMAX =   4173   max aug-charges    IRDMAX=   3583
   dimension x,y,z NGX =    64 NGY =   64 NGZ =   64
   dimension x,y,z NGXF=   128 NGYF=  128 NGZF=  128
   support grid    NGXF=   128 NGYF=  128 NGZF=  128
   ions per type =               4   1
   NGX,Y,Z   is equivalent  to a cutoff of  11.06, 10.80, 11.02 a.u.
   NGXF,Y,Z  is equivalent  to a cutoff of  22.11, 21.61, 22.04 a.u.

 SYSTEM =  unknown system                          
 POSCAR =  POSCAR file written by OVITO            

 Startparameter for this run:
   NWRITE =      2    write-flag & timer
   PREC   = a         normal or accurate (medium, high low for compatibility)
   ISTART =      0    job   : 0-new  1-cont  2-samecut
   ICHARG =      2    charge: 1-file 2-atom 10-const
   ISPIN  =      1    spin polarized calculation?
   LNONCOLLINEAR =      F non collinear calculations
   LSORBIT =      F    spin-orbit coupling
   INIWAV =      1    electr: 0-lowe 1-rand  2-diag
   LASPH  =      F    aspherical Exc in radial PAW
   METAGGA=      F    non-selfconsistent MetaGGA calc.

 Electronic Relaxation 1
   ENCUT  =  400.0 eV  29.40 Ry    5.42 a.u.  15.69 16.06 15.74*2*pi/ulx,y,z
   ENINI  =  400.0     initial cutoff
   ENAUG  =  644.9 eV  augmentation charge cutoff
   NELM   =    120;   NELMIN=  4; NELMDL= -5     # of ELM steps 
   EDIFF  = 0.1E-05   stopping-criterion for ELM
   LREAL  =      T    real-space projection
   NLSPLINE    = F    spline interpolate recip. space projectors
   LCOMPAT=      F    compatible to vasp.4.4
   GGA_COMPAT  = T    GGA compatible to vasp.4.4-vasp.4.6
   LMAXPAW     = -100 max onsite density
   LMAXMIX     =    2 max onsite mixed and CHGCAR
   VOSKOWN=      0    Vosko Wilk Nusair interpolation
   ROPT   =   -0.00025  -0.00025
 Ionic relaxation
   EDIFFG = 0.1E-04   stopping-criterion for IOM
   NSW    =      0    number of steps for IOM
   NBLOCK =      1;   KBLOCK =      1    inner block; outer block 
   IBRION =     -1    ionic relax: 0-MD 1-quasi-New 2-CG
   NFREE  =      0    steps in history (QN), initial steepest desc. (CG)
   ISIF   =      2    stress and relaxation
   IWAVPR =     10    prediction:  0-non 1-charg 2-wave 3-comb
   ISYM   =      0    0-nonsym 1-usesym 2-fastsym
   LCORR  =      T    Harris-Foulkes like correction to forces

   POTIM  = 0.5000    time-step for ionic-motion
   TEIN   =    0.0    initial temperature
   TEBEG  =    0.0;   TEEND  =   0.0 temperature during run
   SMASS  =  -3.00    Nose mass-parameter (am)
   estimated Nose-frequenzy (Omega)   =  0.10E-29 period in steps =****** mass=  -0.212E-26a.u.
   SCALEE = 1.0000    scale energy and forces
   NPACO  =    256;   APACO  = 16.0  distance and # of slots for P.C.
   PSTRESS=    0.0 pullay stress

  Mass of Ions in am
   POMASS =   1.00 12.01
  Ionic Valenz
   ZVAL   =   1.00  4.00
  Atomic Wigner-Seitz radii
   RWIGS  =  -1.00 -1.00
  virtual crystal weights 
   VCA    =   1.00  1.00
   NELECT =       8.0000    total number of electrons
   NUPDOWN=      -1.0000    fix difference up-down

 DOS related values:
   EMIN   =  10.00;   EMAX   =-10.00  energy-range for DOS
   EFERMI =   0.00
   ISMEAR =     0;   SIGMA  =   0.05  broadening in eV -4-tet -1-fermi 0-gaus

 Electronic relaxation 2 (details)
   IALGO  =     38    algorithm
   LDIAG  =      T    sub-space diagonalisation (order eigenvalues)
   LSUBROT=      F    optimize rotation matrix (better conditioning)
   TURBO    =      0    0=normal 1=particle mesh
   IRESTART =      0    0=no restart 2=restart with 2 vectors
   NREBOOT  =      0    no. of reboots
   NMIN     =      0    reboot dimension
   EREF     =   0.00    reference energy to select bands
   IMIX   =      4    mixing-type and parameters
     AMIX     =   0.40;   BMIX     =  1.00
     AMIX_MAG =   1.60;   BMIX_MAG =  1.00
     AMIN     =   0.10
     WC   =   100.;   INIMIX=   1;  MIXPRE=   1;  MAXMIX= -45

 Intra band minimization:
   WEIMIN = 0.0000     energy-eigenvalue tresh-hold
   EBREAK =  0.31E-07  absolut break condition
   DEPER  =   0.30     relativ break condition  

   TIME   =   0.40     timestep for ELM

  volume/ion in A,a.u.               =     182.86      1234.01
  Fermi-wavevector in a.u.,A,eV,Ry     =   0.337345  0.637490  1.548368  0.113802
  Thomas-Fermi vector in A             =   1.238486

 Write flags
   LWAVE        =      F    write WAVECAR
   LDOWNSAMPLE  =      F    k-point downsampling of WAVECAR
   LCHARG       =      F    write CHGCAR
   LVTOT        =      F    write LOCPOT, total local potential
   LVHAR        =      F    write LOCPOT, Hartree potential only
   LELF         =      F    write electronic localiz. function (ELF)
   LORBIT       =      0    0 simple, 1 ext, 2 COOP (PROOUT), +10 PAW based schemes


 Dipole corrections
   LMONO  =      F    monopole corrections only (constant potential shift)
   LDIPOL =      F    correct potential (dipole corrections)
   IDIPOL =      0    1-x, 2-y, 3-z, 4-all directions 
   EPSILON=  1.0000000 bulk dielectric constant

 Exchange correlation treatment:
   GGA     =    --    GGA type
   LEXCH   =     8    internal setting for exchange type
   VOSKOWN=      0    Vosko Wilk Nusair interpolation
   LHFCALC =     F    Hartree Fock is set to
   LHFONE  =     F    Hartree Fock one center treatment
   AEXX    =    0.0000 exact exchange contribution

 Linear response parameters
   LEPSILON=     F    determine dielectric tensor
   LRPA    =     F    only Hartree local field effects (RPA)
   LNABLA  =     F    use nabla operator in PAW spheres
   LVEL    =     F    velocity operator in full k-point grid
   LINTERFAST=   F  fast interpolation
   KINTER  =     0    interpolate to denser k-point grid
   CSHIFT  =0.1000    complex shift for real part using Kramers Kronig
   OMEGAMAX=  -1.0    maximum frequency
   DEG_THRESHOLD= 0.2000000E-02 threshold for treating states as degnerate
   RTIME   =   -0.100 relaxation time in fs
  (WPLASMAI=    0.000 imaginary part of plasma frequency in eV, 0.658/RTIME)
   DFIELD  = 0.0000000 0.0000000 0.0000000 field for delta impulse in time

 Orbital magnetization related:
   ORBITALMAG=     F  switch on orbital magnetization
   LCHIMAG   =     F  perturbation theory with respect to B field
   DQ        =  0.001000  dq finite difference perturbation B field
   LLRAUG    =     F  two centre corrections for induced B field



--------------------------------------------------------------------------------------------------------


 Static calculation
 charge density and potential will be updated during run
 non-spin polarized calculation
 Variant of blocked Davidson
 Davidson routine will perform the subspace rotation
 perform sub-space diagonalisation
    after iterative eigenvector-optimisation
 modified Broyden-mixing scheme, WC =      100.0
 initial mixing is a Kerker type mixing with AMIX =  0.4000 and BMIX =      1.0000
 Hartree-type preconditioning will be used
 using additional bands            4
 real space projection scheme for non local part
 use partial core corrections
 calculate Harris-corrections to forces   (improved forces if not selfconsistent)
 use gradient corrections 
 use of overlap-Matrix (Vanderbilt PP)
 Gauss-broadening in eV      SIGMA  =   0.05


--------------------------------------------------------------------------------------------------------


  energy-cutoff  :      400.00
  volume of cell :      914.30
      direct lattice vectors                 reciprocal lattice vectors
     9.623184200  0.000000000  0.000000000     0.103915708 -0.001152605 -0.002465434
     0.109219800  9.846960200  0.000000000     0.000000000  0.101554183 -0.002714664
     0.231779800  0.257921700  9.648719800     0.000000000  0.000000000  0.103640692

  length of vectors
     9.623184200  9.847565900  9.654948952     0.103951341  0.101590460  0.103640692



 k-points in units of 2pi/SCALE and weight: read from INCAR                         
   0.00000000  0.00000000  0.00000000       1.000

 k-points in reciprocal lattice and weights: read from INCAR                         
   0.00000000  0.00000000  0.00000000       1.000

 position of ions in fractional coordinates (direct lattice) 
   0.61051099  0.46372460  0.48919038
   0.50125385  0.41595123  0.34508522
   0.47426040  0.56810916  0.43087484
   0.43030726  0.41357006  0.52008878
   0.50265896  0.46795347  0.44521665

 position of ions in cartesian coordinates  (Angst):
   6.03909210  4.69245050  4.72006090
   4.94907200  4.18486020  3.32963060
   4.72581200  5.70528030  4.15739060
   4.30664210  4.20655010  5.01819090
   4.99148180  4.72275020  4.29577070



--------------------------------------------------------------------------------------------------------


 k-point  1 :   0.0000 0.0000 0.0000  plane waves:   16609

 maximum and minimum number of plane-waves per node :     16609    16609

 maximum number of plane-waves:     16609
 maximum index in each direction: 
   IXMAX=   15   IYMAX=   16   IZMAX=   15
   IXMIN=  -15   IYMIN=  -16   IZMIN=  -15


 serial   3D FFT for wavefunctions
 parallel 3D FFT for charge:
    minimum data exchange during FFTs selected (reduces bandwidth)


 total amount of memory used by VASP MPI-rank0   235049. kBytes
=======================================================================

   base      :      30000. kBytes
   nonlr-proj:       1127. kBytes
   fftplans  :      72476. kBytes
   grid      :     129302. kBytes
   one-center:         15. kBytes
   wavefun   :       2129. kBytes

     INWAV:  cpu time    0.0000: real time    0.0000
 Broyden mixing: mesh for mixing (old mesh)
   NGX = 31   NGY = 33   NGZ = 31
  (NGX  =128   NGY  =128   NGZ  =128)
  gives a total of  31713 points

 initial charge density was supplied:
 charge density of overlapping atoms calculated
 number of electron       8.0000000 magnetization 
 keeping initial charge density in first step


--------------------------------------------------------------------------------------------------------


 Maximum index for non-local projection operator         4006
 Maximum index for augmentation-charges         3278 (set IRDMAX)


--------------------------------------------------------------------------------------------------------


 First call to EWALD:  gamma=   0.183
 Maximum number of real-space cells 3x 3x 3
 Maximum number of reciprocal cells 3x 3x 3

    FEWALD:  cpu time    0.0007: real time    0.0007


--------------------------------------- Iteration      1(   1)  ---------------------------------------


    POTLOK:  cpu time    1.5942: real time    1.5983
    SETDIJ:  cpu time    0.0064: real time    0.0064
     EDDAV:  cpu time    0.3581: real time    0.3590
       DOS:  cpu time    0.0001: real time    0.0001
    --------------------------------------------
      LOOP:  cpu time    1.9589: real time    1.9638

 eigenvalue-minimisations  :    16
 total energy-change (2. order) : 0.5379768E+02  (-0.1637111E+03)
 number of electron       8.0000000 magnetization 
 augmentation part        8.0000000 magnetization 

 Free energy of the ion-electron system (eV)
  ---------------------------------------------------
  alpha Z        PSCENC =         0.26495647
  Ewald energy   TEWEN  =       125.28435402
  -Hartree energ DENC   =      -240.39869681
  -exchange      EXHF   =         0.00000000
  -V(xc)+E(xc)   XCENC  =        22.01565208
  PAW double counting   =       117.05815612     -117.66307307
  entropy T*S    EENTRO =        -0.00000000
  eigenvalues    EBANDS =       -49.80542034
  atomic energy  EATOM  =       197.04175453
  Solvation  Ediel_sol  =         0.00000000
  ---------------------------------------------------
  free energy    TOTEN  =        53.79768301 eV

  energy without entropy =       53.79768301  energy(sigma->0) =       53.79768301


--------------------------------------------------------------------------------------------------------




--------------------------------------- Iteration      1(   2)  ---------------------------------------


     EDDAV:  cpu time    0.4907: real time    0.4921
       DOS:  cpu time    0.0001: real time    0.0001
    --------------------------------------------
      LOOP:  cpu time    0.4908: real time    0.4922

 eigenvalue-minimisations  :    24
 total energy-change (2. order) :-0.6361738E+02  (-0.6361738E+02)
 number of electron       8.0000000 magnetization 
 augmentation part        8.0000000 magnetization 

 Free energy of the ion-electron system (eV)
  ---------------------------------------------------
  alpha Z        PSCENC =         0.26495647
  Ewald energy   TEWEN  =       125.28435402
  -Hartree energ DENC   =      -240.39869681
  -exchange      EXHF   =         0.00000000
  -V(xc)+E(xc)   XCENC  =        22.01565208
  PAW double counting   =       117.05815612     -117.66307307
  entropy T*S    EENTRO =        -0.00000000
  eigenvalues    EBANDS =      -113.42280353
  atomic energy  EATOM  =       197.04175453
  Solvation  Ediel_sol  =         0.00000000
  ---------------------------------------------------
  free energy    TOTEN  =        -9.81970019 eV

  energy without entropy =       -9.81970019  energy(sigma->0) =       -9.81970019


--------------------------------------------------------------------------------------------------------




--------------------------------------- Iteration      1(   3)  ---------------------------------------


     EDDAV:  cpu time    0.3637: real time    0.3646
       DOS:  cpu time    0.0001: real time    0.0001
    --------------------------------------------
      LOOP:  cpu time    0.3638: real time    0.3646

 eigenvalue-minimisations  :    16
 total energy-change (2. order) :-0.1652144E+02  (-0.1652144E+02)
 number of electron       8.0000000 magnetization 
 augmentation part        8.0000000 magnetization 

 Free energy of the ion-electron system (eV)
  ---------------------------------------------------
  alpha Z        PSCENC =         0.26495647
  Ewald energy   TEWEN  =       125.28435402
  -Hartree energ DENC   =      -240.39869681
  -exchange      EXHF   =         0.00000000
  -V(xc)+E(xc)   XCENC  =        22.01565208
  PAW double counting   =       117.05815612     -117.66307307
  entropy T*S    EENTRO =        -0.00000000
  eigenvalues    EBANDS =      -129.94424835
  atomic energy  EATOM  =       197.04175453
  Solvation  Ediel_sol  =         0.00000000
  ---------------------------------------------------
  free energy    TOTEN  =       -26.34114501 eV

  energy without entropy =      -26.34114501  energy(sigma->0) =      -26.34114501


--------------------------------------------------------------------------------------------------------




--------------------------------------- Iteration      1(   4)  ---------------------------------------


     EDDAV:  cpu time    0.6766: real time    0.6782
       DOS:  cpu time    0.0001: real time    0.0001
    --------------------------------------------
      LOOP:  cpu time    0.6767: real time    0.6783

 eigenvalue-minimisations  :    32
 total energy-change (2. order) :-0.1143064E+01  (-0.1143064E+01)
 number of electron       8.0000000 magnetization 
 augmentation part        8.0000000 magnetization 

 Free energy of the ion-electron system (eV)
  ---------------------------------------------------
  alpha Z        PSCENC =         0.26495647
  Ewald energy   TEWEN  =       125.28435402
  -Hartree energ DENC   =      -240.39869681
  -exchange      EXHF   =         0.00000000
  -V(xc)+E(xc)   XCENC  =        22.01565208
  PAW double counting   =       117.05815612     -117.66307307
  entropy T*S    EENTRO =        -0.00000000
  eigenvalues    EBANDS =      -131.08731284
  atomic energy  EATOM  =       197.04175453
  Solvation  Ediel_sol  =         0.00000000
  ---------------------------------------------------
  free energy    TOTEN  =       -27.48420950 eV

  energy without entropy =      -27.48420950  energy(sigma->0) =      -27.48420950


--------------------------------------------------------------------------------------------------------




--------------------------------------- Iteration      1(   5)  ---------------------------------------


     EDDAV:  cpu time    0.6358: real time    0.6373
       DOS:  cpu time    0.0001: real time    0.0001
    CHARGE:  cpu time    0.0888: real time    0.0890
    MIXING:  cpu time    0.0301: real time    0.0302
    --------------------------------------------
      LOOP:  cpu time    0.7549: real time    0.7567

 eigenvalue-minimisations  :    32
 total energy-change (2. order) :-0.7175259E-03  (-0.7175259E-03)
 number of electron       8.0000001 magnetization 
 augmentation part        0.2264614 magnetization 

 Broyden mixing:
  rms(total) = 0.88023E+00    rms(broyden)= 0.88000E+00
  rms(prec ) = 0.12639E+01
  weight for this iteration     100.00

 Free energy of the ion-electron system (eV)
  ---------------------------------------------------
  alpha Z        PSCENC =         0.26495647
  Ewald energy   TEWEN  =       125.28435402
  -Hartree energ DENC   =      -240.39869681
  -exchange      EXHF   =         0.00000000
  -V(xc)+E(xc)   XCENC  =        22.01565208
  PAW double counting   =       117.05815612     -117.66307307
  entropy T*S    EENTRO =        -0.00000000
  eigenvalues    EBANDS =      -131.08803037
  atomic energy  EATOM  =       197.04175453
  Solvation  Ediel_sol  =         0.00000000
  ---------------------------------------------------
  free energy    TOTEN  =       -27.48492703 eV

  energy without entropy =      -27.48492703  energy(sigma->0) =      -27.48492703


--------------------------------------------------------------------------------------------------------




--------------------------------------- Iteration      1(   6)  ---------------------------------------


    POTLOK:  cpu time    1.4838: real time    1.4873
    SETDIJ:  cpu time    0.0072: real time    0.0072
     EDDAV:  cpu time    0.4794: real time    0.4806
       DOS:  cpu time    0.0001: real time    0.0001
    CHARGE:  cpu time    0.0769: real time    0.0771
    MIXING:  cpu time    0.0288: real time    0.0288
    --------------------------------------------
      LOOP:  cpu time    2.0761: real time    2.0811

 eigenvalue-minimisations  :    24
 total energy-change (2. order) : 0.2927435E+01  (-0.8988589E+00)
 number of electron       8.0000001 magnetization 
 augmentation part        0.1980485 magnetization 

 Broyden mixing:
  rms(total) = 0.44805E+00    rms(broyden)= 0.44794E+00
  rms(prec ) = 0.56835E+00
  weight for this iteration     100.00

 eigenvalues of (default mixing * dielectric matrix)
  average eigenvalue GAMMA=   1.2027
  1.2027

 Free energy of the ion-electron system (eV)
  ---------------------------------------------------
  alpha Z        PSCENC =         0.26495647
  Ewald energy   TEWEN  =       125.28435402
  -Hartree energ DENC   =      -260.25052373
  -exchange      EXHF   =         0.00000000
  -V(xc)+E(xc)   XCENC  =        23.22052738
  PAW double counting   =       239.71606396     -240.49806044
  entropy T*S    EENTRO =        -0.00000000
  eigenvalues    EBANDS =      -109.33656429
  atomic energy  EATOM  =       197.04175453
  Solvation  Ediel_sol  =         0.00000000
  ---------------------------------------------------
  free energy    TOTEN  =       -24.55749209 eV

  energy without entropy =      -24.55749209  energy(sigma->0) =      -24.55749209


--------------------------------------------------------------------------------------------------------




--------------------------------------- Iteration      1(   7)  ---------------------------------------


    POTLOK:  cpu time    1.5092: real time    1.5128
    SETDIJ:  cpu time    0.0070: real time    0.0070
     EDDAV:  cpu time    0.6654: real time    0.6669
       DOS:  cpu time    0.0001: real time    0.0001
    CHARGE:  cpu time    0.0832: real time    0.0834
    MIXING:  cpu time    0.0309: real time    0.0310
    --------------------------------------------
      LOOP:  cpu time    2.2957: real time    2.3012

 eigenvalue-minimisations  :    32
 total energy-change (2. order) : 0.4843463E+00  (-0.7582891E-01)
 number of electron       8.0000001 magnetization 
 augmentation part        0.1895465 magnetization 

 Broyden mixing:
  rms(total) = 0.23040E+00    rms(broyden)= 0.23035E+00
  rms(prec ) = 0.28552E+00
  weight for this iteration     100.00

 eigenvalues of (default mixing * dielectric matrix)
  average eigenvalue GAMMA=   1.7128
  1.2592  2.1664

 Free energy of the ion-electron system (eV)
  ---------------------------------------------------
  alpha Z        PSCENC =         0.26495647
  Ewald energy   TEWEN  =       125.28435402
  -Hartree energ DENC   =      -270.37219649
  -exchange      EXHF   =         0.00000000
  -V(xc)+E(xc)   XCENC  =        23.98371418
  PAW double counting   =       368.35077191     -369.16172518
  entropy T*S    EENTRO =        -0.00000000
  eigenvalues    EBANDS =       -99.46477523
  atomic energy  EATOM  =       197.04175453
  Solvation  Ediel_sol  =         0.00000000
  ---------------------------------------------------
  free energy    TOTEN  =       -24.07314579 eV

  energy without entropy =      -24.07314579  energy(sigma->0) =      -24.07314579


--------------------------------------------------------------------------------------------------------




--------------------------------------- Iteration      1(   8)  ---------------------------------------


    POTLOK:  cpu time    1.4349: real time    1.4383
    SETDIJ:  cpu time    0.0062: real time    0.0062
     EDDAV:  cpu time    0.4621: real time    0.4632
       DOS:  cpu time    0.0001: real time    0.0001
    CHARGE:  cpu time    0.0795: real time    0.0797
    MIXING:  cpu time    0.0299: real time    0.0300
    --------------------------------------------
      LOOP:  cpu time    2.0126: real time    2.0174

 eigenvalue-minimisations  :    24
 total energy-change (2. order) : 0.1650708E+00  (-0.1869376E-01)
 number of electron       8.0000001 magnetization 
 augmentation part        0.1869834 magnetization 

 Broyden mixing:
  rms(total) = 0.28051E-01    rms(broyden)= 0.28021E-01
  rms(prec ) = 0.56707E-01
  weight for this iteration     100.00

 eigenvalues of (default mixing * dielectric matrix)
  average eigenvalue GAMMA=   1.5476
  2.1378  1.1353  1.3696

 Free energy of the ion-electron system (eV)
  ---------------------------------------------------
  alpha Z        PSCENC =         0.26495647
  Ewald energy   TEWEN  =       125.28435402
  -Hartree energ DENC   =      -277.40777893
  -exchange      EXHF   =         0.00000000
  -V(xc)+E(xc)   XCENC  =        24.61674540
  PAW double counting   =       485.48352238     -486.27931727
  entropy T*S    EENTRO =        -0.00000000
  eigenvalues    EBANDS =       -92.91231161
  atomic energy  EATOM  =       197.04175453
  Solvation  Ediel_sol  =         0.00000000
  ---------------------------------------------------
  free energy    TOTEN  =       -23.90807503 eV

  energy without entropy =      -23.90807503  energy(sigma->0) =      -23.90807503


--------------------------------------------------------------------------------------------------------




--------------------------------------- Iteration      1(   9)  ---------------------------------------


    POTLOK:  cpu time    1.4374: real time    1.4408
    SETDIJ:  cpu time    0.0068: real time    0.0069
     EDDAV:  cpu time    0.6301: real time    0.6316
       DOS:  cpu time    0.0001: real time    0.0001
    CHARGE:  cpu time    0.0717: real time    0.0718
    MIXING:  cpu time    0.0311: real time    0.0312
    --------------------------------------------
      LOOP:  cpu time    2.1772: real time    2.1824

 eigenvalue-minimisations  :    32
 total energy-change (2. order) : 0.5951162E-02  (-0.4041320E-03)
 number of electron       8.0000001 magnetization 
 augmentation part        0.1863612 magnetization 

 Broyden mixing:
  rms(total) = 0.15763E-01    rms(broyden)= 0.15759E-01
  rms(prec ) = 0.36706E-01
  weight for this iteration     100.00

 eigenvalues of (default mixing * dielectric matrix)
  average eigenvalue GAMMA=   1.8988
  2.9630  2.4548  0.9792  1.1981

 Free energy of the ion-electron system (eV)
  ---------------------------------------------------
  alpha Z        PSCENC =         0.26495647
  Ewald energy   TEWEN  =       125.28435402
  -Hartree energ DENC   =      -278.73253861
  -exchange      EXHF   =         0.00000000
  -V(xc)+E(xc)   XCENC  =        24.68180440
  PAW double counting   =       480.28203503     -481.07651798
  entropy T*S    EENTRO =        -0.00000000
  eigenvalues    EBANDS =       -91.64797173
  atomic energy  EATOM  =       197.04175453
  Solvation  Ediel_sol  =         0.00000000
  ---------------------------------------------------
  free energy    TOTEN  =       -23.90212387 eV

  energy without entropy =      -23.90212387  energy(sigma->0) =      -23.90212387


--------------------------------------------------------------------------------------------------------




--------------------------------------- Iteration      1(  10)  ---------------------------------------


    POTLOK:  cpu time    1.3711: real time    1.3743
    SETDIJ:  cpu time    0.0063: real time    0.0063
     EDDAV:  cpu time    0.3577: real time    0.3586
       DOS:  cpu time    0.0001: real time    0.0001
    CHARGE:  cpu time    0.0803: real time    0.0805
    MIXING:  cpu time    0.0302: real time    0.0303
    --------------------------------------------
      LOOP:  cpu time    1.8456: real time    1.8500

 eigenvalue-minimisations  :    16
 total energy-change (2. order) : 0.8200613E-02  (-0.5239533E-03)
 number of electron       8.0000001 magnetization 
 augmentation part        0.1861912 magnetization 

 Broyden mixing:
  rms(total) = 0.73660E-02    rms(broyden)= 0.73648E-02
  rms(prec ) = 0.16623E-01
  weight for this iteration     100.00

 eigenvalues of (default mixing * dielectric matrix)
  average eigenvalue GAMMA=   1.9325
  3.0312  0.9955  1.2042  2.2158  2.2158

 Free energy of the ion-electron system (eV)
  ---------------------------------------------------
  alpha Z        PSCENC =         0.26495647
  Ewald energy   TEWEN  =       125.28435402
  -Hartree energ DENC   =      -280.31522209
  -exchange      EXHF   =         0.00000000
  -V(xc)+E(xc)   XCENC  =        24.75369589
  PAW double counting   =       471.06458841     -471.85459230
  entropy T*S    EENTRO =        -0.00000000
  eigenvalues    EBANDS =       -90.13345818
  atomic energy  EATOM  =       197.04175453
  Solvation  Ediel_sol  =         0.00000000
  ---------------------------------------------------
  free energy    TOTEN  =       -23.89392325 eV

  energy without entropy =      -23.89392325  energy(sigma->0) =      -23.89392325


--------------------------------------------------------------------------------------------------------




--------------------------------------- Iteration      1(  11)  ---------------------------------------


    POTLOK:  cpu time    1.3139: real time    1.3170
    SETDIJ:  cpu time    0.0064: real time    0.0064
     EDDAV:  cpu time    0.4944: real time    0.4956
       DOS:  cpu time    0.0001: real time    0.0001
    CHARGE:  cpu time    0.0800: real time    0.0802
    MIXING:  cpu time    0.0323: real time    0.0324
    --------------------------------------------
      LOOP:  cpu time    1.9271: real time    1.9317

 eigenvalue-minimisations  :    24
 total energy-change (2. order) :-0.8170425E-02  (-0.3088770E-03)
 number of electron       8.0000001 magnetization 
 augmentation part        0.1858596 magnetization 

 Broyden mixing:
  rms(total) = 0.79345E-02    rms(broyden)= 0.79338E-02
  rms(prec ) = 0.11586E-01
  weight for this iteration     100.00

 eigenvalues of (default mixing * dielectric matrix)
  average eigenvalue GAMMA=   2.1351
  4.5061  2.8633  2.2669  1.2149  0.9797  0.9797

 Free energy of the ion-electron system (eV)
  ---------------------------------------------------
  alpha Z        PSCENC =         0.26495647
  Ewald energy   TEWEN  =       125.28435402
  -Hartree energ DENC   =      -281.21889269
  -exchange      EXHF   =         0.00000000
  -V(xc)+E(xc)   XCENC  =        24.79250841
  PAW double counting   =       476.14382139     -476.93497615
  entropy T*S    EENTRO =        -0.00000000
  eigenvalues    EBANDS =       -89.27561967
  atomic energy  EATOM  =       197.04175453
  Solvation  Ediel_sol  =         0.00000000
  ---------------------------------------------------
  free energy    TOTEN  =       -23.90209368 eV

  energy without entropy =      -23.90209368  energy(sigma->0) =      -23.90209368


--------------------------------------------------------------------------------------------------------




--------------------------------------- Iteration      1(  12)  ---------------------------------------


    POTLOK:  cpu time    1.2307: real time    1.2336
    SETDIJ:  cpu time    0.0068: real time    0.0068
     EDDAV:  cpu time    0.6020: real time    0.6035
       DOS:  cpu time    0.0001: real time    0.0001
    CHARGE:  cpu time    0.0702: real time    0.0704
    MIXING:  cpu time    0.0325: real time    0.0326
    --------------------------------------------
      LOOP:  cpu time    1.9424: real time    1.9470

 eigenvalue-minimisations  :    32
 total energy-change (2. order) :-0.2997166E-02  (-0.4419787E-04)
 number of electron       8.0000001 magnetization 
 augmentation part        0.1859696 magnetization 

 Broyden mixing:
  rms(total) = 0.21128E-02    rms(broyden)= 0.21127E-02
  rms(prec ) = 0.47784E-02
  weight for this iteration     100.00

 eigenvalues of (default mixing * dielectric matrix)
  average eigenvalue GAMMA=   2.3175
  5.0772  3.1519  2.6700  2.0642  1.2152  1.0219  1.0219

 Free energy of the ion-electron system (eV)
  ---------------------------------------------------
  alpha Z        PSCENC =         0.26495647
  Ewald energy   TEWEN  =       125.28435402
  -Hartree energ DENC   =      -281.00890353
  -exchange      EXHF   =         0.00000000
  -V(xc)+E(xc)   XCENC  =        24.76661345
  PAW double counting   =       471.80100069     -472.59202977
  entropy T*S    EENTRO =        -0.00000000
  eigenvalues    EBANDS =       -89.46283670
  atomic energy  EATOM  =       197.04175453
  Solvation  Ediel_sol  =         0.00000000
  ---------------------------------------------------
  free energy    TOTEN  =       -23.90509084 eV

  energy without entropy =      -23.90509084  energy(sigma->0) =      -23.90509084


--------------------------------------------------------------------------------------------------------




--------------------------------------- Iteration      1(  13)  ---------------------------------------


    POTLOK:  cpu time    1.1971: real time    1.1999
    SETDIJ:  cpu time    0.0062: real time    0.0062
     EDDAV:  cpu time    0.3364: real time    0.3372
       DOS:  cpu time    0.0001: real time    0.0001
    CHARGE:  cpu time    0.0751: real time    0.0753
    MIXING:  cpu time    0.0327: real time    0.0327
    --------------------------------------------
      LOOP:  cpu time    1.6475: real time    1.6514

 eigenvalue-minimisations  :    16
 total energy-change (2. order) :-0.3950558E-02  (-0.8648696E-04)
 number of electron       8.0000001 magnetization 
 augmentation part        0.1859762 magnetization 

 Broyden mixing:
  rms(total) = 0.15674E-02    rms(broyden)= 0.15673E-02
  rms(prec ) = 0.23442E-02
  weight for this iteration     100.00

 eigenvalues of (default mixing * dielectric matrix)
  average eigenvalue GAMMA=   2.3501
  5.9583  3.7635  2.5687  2.2481  1.2342  1.0354  1.0354  0.9576

 Free energy of the ion-electron system (eV)
  ---------------------------------------------------
  alpha Z        PSCENC =         0.26495647
  Ewald energy   TEWEN  =       125.28435402
  -Hartree energ DENC   =      -281.02083508
  -exchange      EXHF   =         0.00000000
  -V(xc)+E(xc)   XCENC  =        24.76239146
  PAW double counting   =       472.80636711     -473.59666304
  entropy T*S    EENTRO =        -0.00000000
  eigenvalues    EBANDS =       -89.45136687
  atomic energy  EATOM  =       197.04175453
  Solvation  Ediel_sol  =         0.00000000
  ---------------------------------------------------
  free energy    TOTEN  =       -23.90904140 eV

  energy without entropy =      -23.90904140  energy(sigma->0) =      -23.90904140


--------------------------------------------------------------------------------------------------------




--------------------------------------- Iteration      1(  14)  ---------------------------------------


    POTLOK:  cpu time    1.1907: real time    1.1935
    SETDIJ:  cpu time    0.0062: real time    0.0062
     EDDAV:  cpu time    0.5999: real time    0.6014
       DOS:  cpu time    0.0001: real time    0.0001
    CHARGE:  cpu time    0.0743: real time    0.0744
    MIXING:  cpu time    0.0333: real time    0.0333
    --------------------------------------------
      LOOP:  cpu time    1.9044: real time    1.9089

 eigenvalue-minimisations  :    32
 total energy-change (2. order) :-0.5214235E-03  (-0.5397611E-05)
 number of electron       8.0000001 magnetization 
 augmentation part        0.1859575 magnetization 

 Broyden mixing:
  rms(total) = 0.58325E-03    rms(broyden)= 0.58315E-03
  rms(prec ) = 0.11612E-02
  weight for this iteration     100.00

 eigenvalues of (default mixing * dielectric matrix)
  average eigenvalue GAMMA=   2.5389
  6.8082  4.0823  3.0365  2.4063  2.1892  1.2376  1.0372  1.0372  1.0161

 Free energy of the ion-electron system (eV)
  ---------------------------------------------------
  alpha Z        PSCENC =         0.26495647
  Ewald energy   TEWEN  =       125.28435402
  -Hartree energ DENC   =      -280.98420797
  -exchange      EXHF   =         0.00000000
  -V(xc)+E(xc)   XCENC  =        24.75787759
  PAW double counting   =       472.06614633     -472.85673300
  entropy T*S    EENTRO =        -0.00000000
  eigenvalues    EBANDS =       -89.48371080
  atomic energy  EATOM  =       197.04175453
  Solvation  Ediel_sol  =         0.00000000
  ---------------------------------------------------
  free energy    TOTEN  =       -23.90956282 eV

  energy without entropy =      -23.90956282  energy(sigma->0) =      -23.90956282


--------------------------------------------------------------------------------------------------------




--------------------------------------- Iteration      1(  15)  ---------------------------------------


    POTLOK:  cpu time    1.1777: real time    1.1805
    SETDIJ:  cpu time    0.0062: real time    0.0062
     EDDAV:  cpu time    0.3385: real time    0.3393
       DOS:  cpu time    0.0001: real time    0.0001
    CHARGE:  cpu time    0.0724: real time    0.0726
    MIXING:  cpu time    0.0338: real time    0.0339
    --------------------------------------------
      LOOP:  cpu time    1.6287: real time    1.6326

 eigenvalue-minimisations  :    16
 total energy-change (2. order) :-0.3801493E-03  (-0.2705532E-05)
 number of electron       8.0000001 magnetization 
 augmentation part        0.1859607 magnetization 

 Broyden mixing:
  rms(total) = 0.39517E-03    rms(broyden)= 0.39514E-03
  rms(prec ) = 0.51132E-03
  weight for this iteration     100.00

 eigenvalues of (default mixing * dielectric matrix)
  average eigenvalue GAMMA=   2.4802
  7.2654  4.6229  2.8385  2.5473  2.1281  1.2464  1.1368  1.0065  1.0049  1.0049

 Free energy of the ion-electron system (eV)
  ---------------------------------------------------
  alpha Z        PSCENC =         0.26495647
  Ewald energy   TEWEN  =       125.28435402
  -Hartree energ DENC   =      -280.99210517
  -exchange      EXHF   =         0.00000000
  -V(xc)+E(xc)   XCENC  =        24.75803463
  PAW double counting   =       471.73344490     -472.52404984
  entropy T*S    EENTRO =        -0.00000000
  eigenvalues    EBANDS =       -89.47633251
  atomic energy  EATOM  =       197.04175453
  Solvation  Ediel_sol  =         0.00000000
  ---------------------------------------------------
  free energy    TOTEN  =       -23.90994297 eV

  energy without entropy =      -23.90994297  energy(sigma->0) =      -23.90994297


--------------------------------------------------------------------------------------------------------




--------------------------------------- Iteration      1(  16)  ---------------------------------------


    POTLOK:  cpu time    1.1981: real time    1.2009
    SETDIJ:  cpu time    0.0061: real time    0.0062
     EDDAV:  cpu time    0.6087: real time    0.6102
       DOS:  cpu time    0.0001: real time    0.0001
    CHARGE:  cpu time    0.0746: real time    0.0748
    MIXING:  cpu time    0.0350: real time    0.0351
    --------------------------------------------
      LOOP:  cpu time    1.9226: real time    1.9271

 eigenvalue-minimisations  :    32
 total energy-change (2. order) :-0.2302711E-04  (-0.6572636E-07)
 number of electron       8.0000001 magnetization 
 augmentation part        0.1859598 magnetization 

 Broyden mixing:
  rms(total) = 0.21378E-03    rms(broyden)= 0.21378E-03
  rms(prec ) = 0.32664E-03
  weight for this iteration     100.00

 eigenvalues of (default mixing * dielectric matrix)
  average eigenvalue GAMMA=   2.5924
  7.8197  4.7198  3.6140  2.5643  2.2837  2.1295  1.2656  1.1385  0.9914  0.9914
  0.9988

 Free energy of the ion-electron system (eV)
  ---------------------------------------------------
  alpha Z        PSCENC =         0.26495647
  Ewald energy   TEWEN  =       125.28435402
  -Hartree energ DENC   =      -280.98984857
  -exchange      EXHF   =         0.00000000
  -V(xc)+E(xc)   XCENC  =        24.75789192
  PAW double counting   =       471.84587319     -472.63649696
  entropy T*S    EENTRO =        -0.00000000
  eigenvalues    EBANDS =       -89.47845060
  atomic energy  EATOM  =       197.04175453
  Solvation  Ediel_sol  =         0.00000000
  ---------------------------------------------------
  free energy    TOTEN  =       -23.90996600 eV

  energy without entropy =      -23.90996600  energy(sigma->0) =      -23.90996600


--------------------------------------------------------------------------------------------------------




--------------------------------------- Iteration      1(  17)  ---------------------------------------


    POTLOK:  cpu time    1.2829: real time    1.2859
    SETDIJ:  cpu time    0.0061: real time    0.0062
     EDDAV:  cpu time    0.5941: real time    0.5955
       DOS:  cpu time    0.0001: real time    0.0001
    CHARGE:  cpu time    0.0765: real time    0.0767
    MIXING:  cpu time    0.0401: real time    0.0402
    --------------------------------------------
      LOOP:  cpu time    1.9997: real time    2.0045

 eigenvalue-minimisations  :    32
 total energy-change (2. order) :-0.4155472E-04  (-0.2756773E-06)
 number of electron       8.0000001 magnetization 
 augmentation part        0.1859520 magnetization 

 Broyden mixing:
  rms(total) = 0.87800E-04    rms(broyden)= 0.87774E-04
  rms(prec ) = 0.13885E-03
  weight for this iteration     100.00

 eigenvalues of (default mixing * dielectric matrix)
  average eigenvalue GAMMA=   2.5107
  8.0315  5.0595  3.6758  2.6308  2.3457  1.6940  1.4464  1.2414  1.0437  1.0437
  0.9788  0.9374

 Free energy of the ion-electron system (eV)
  ---------------------------------------------------
  alpha Z        PSCENC =         0.26495647
  Ewald energy   TEWEN  =       125.28435402
  -Hartree energ DENC   =      -281.00519121
  -exchange      EXHF   =         0.00000000
  -V(xc)+E(xc)   XCENC  =        24.75878270
  PAW double counting   =       471.94902720     -472.73967644
  entropy T*S    EENTRO =        -0.00000000
  eigenvalues    EBANDS =       -89.46401483
  atomic energy  EATOM  =       197.04175453
  Solvation  Ediel_sol  =         0.00000000
  ---------------------------------------------------
  free energy    TOTEN  =       -23.91000756 eV

  energy without entropy =      -23.91000756  energy(sigma->0) =      -23.91000756


--------------------------------------------------------------------------------------------------------




--------------------------------------- Iteration      1(  18)  ---------------------------------------


    POTLOK:  cpu time    1.2747: real time    1.2777
    SETDIJ:  cpu time    0.0063: real time    0.0063
     EDDAV:  cpu time    0.5954: real time    0.5968
       DOS:  cpu time    0.0001: real time    0.0001
    CHARGE:  cpu time    0.0746: real time    0.0748
    MIXING:  cpu time    0.0368: real time    0.0369
    --------------------------------------------
      LOOP:  cpu time    1.9879: real time    1.9926

 eigenvalue-minimisations  :    32
 total energy-change (2. order) :-0.1991535E-05  (-0.2598080E-07)
 number of electron       8.0000001 magnetization 
 augmentation part        0.1859562 magnetization 

 Broyden mixing:
  rms(total) = 0.52992E-04    rms(broyden)= 0.52973E-04
  rms(prec ) = 0.72807E-04
  weight for this iteration     100.00

 eigenvalues of (default mixing * dielectric matrix)
  average eigenvalue GAMMA=   2.5262
  8.1460  5.1482  3.9474  2.6234  2.6234  2.2355  1.4184  1.4184  1.2486  1.0379
  1.0379  0.9777  0.9777

 Free energy of the ion-electron system (eV)
  ---------------------------------------------------
  alpha Z        PSCENC =         0.26495647
  Ewald energy   TEWEN  =       125.28435402
  -Hartree energ DENC   =      -281.00201594
  -exchange      EXHF   =         0.00000000
  -V(xc)+E(xc)   XCENC  =        24.75864214
  PAW double counting   =       471.96151873     -472.75214313
  entropy T*S    EENTRO =        -0.00000000
  eigenvalues    EBANDS =       -89.46707636
  atomic energy  EATOM  =       197.04175453
  Solvation  Ediel_sol  =         0.00000000
  ---------------------------------------------------
  free energy    TOTEN  =       -23.91000955 eV

  energy without entropy =      -23.91000955  energy(sigma->0) =      -23.91000955


--------------------------------------------------------------------------------------------------------




--------------------------------------- Iteration      1(  19)  ---------------------------------------


    POTLOK:  cpu time    1.3235: real time    1.3267
    SETDIJ:  cpu time    0.0062: real time    0.0062
     EDDAV:  cpu time    0.3335: real time    0.3343
       DOS:  cpu time    0.0001: real time    0.0001
    CHARGE:  cpu time    0.0751: real time    0.0753
    MIXING:  cpu time    0.0377: real time    0.0378
    --------------------------------------------
      LOOP:  cpu time    1.7760: real time    1.7803

 eigenvalue-minimisations  :    16
 total energy-change (2. order) :-0.3066833E-05  (-0.1008955E-07)
 number of electron       8.0000001 magnetization 
 augmentation part        0.1859555 magnetization 

 Broyden mixing:
  rms(total) = 0.19829E-04    rms(broyden)= 0.19827E-04
  rms(prec ) = 0.34109E-04
  weight for this iteration     100.00

 eigenvalues of (default mixing * dielectric matrix)
  average eigenvalue GAMMA=   2.5029
  8.1699  5.3040  4.0141  3.2229  2.5446  2.3220  1.8557  1.2847  1.1298  0.9860
  0.9860  1.0429  1.0890  1.0890

 Free energy of the ion-electron system (eV)
  ---------------------------------------------------
  alpha Z        PSCENC =         0.26495647
  Ewald energy   TEWEN  =       125.28435402
  -Hartree energ DENC   =      -281.00210562
  -exchange      EXHF   =         0.00000000
  -V(xc)+E(xc)   XCENC  =        24.75858743
  PAW double counting   =       471.95617286     -472.74679529
  entropy T*S    EENTRO =        -0.00000000
  eigenvalues    EBANDS =       -89.46693701
  atomic energy  EATOM  =       197.04175453
  Solvation  Ediel_sol  =         0.00000000
  ---------------------------------------------------
  free energy    TOTEN  =       -23.91001261 eV

  energy without entropy =      -23.91001261  energy(sigma->0) =      -23.91001261


--------------------------------------------------------------------------------------------------------




--------------------------------------- Iteration      1(  20)  ---------------------------------------


    POTLOK:  cpu time    1.2755: real time    1.2785
    SETDIJ:  cpu time    0.0061: real time    0.0062
     EDDAV:  cpu time    0.5835: real time    0.5849
       DOS:  cpu time    0.0001: real time    0.0001
    --------------------------------------------
      LOOP:  cpu time    1.8653: real time    1.8697

 eigenvalue-minimisations  :    32
 total energy-change (2. order) :-0.6279259E-06  (-0.2993072E-08)
 number of electron       8.0000001 magnetization 
 augmentation part        0.1859555 magnetization 

 Free energy of the ion-electron system (eV)
  ---------------------------------------------------
  alpha Z        PSCENC =         0.26495647
  Ewald energy   TEWEN  =       125.28435402
  -Hartree energ DENC   =      -281.00057971
  -exchange      EXHF   =         0.00000000
  -V(xc)+E(xc)   XCENC  =        24.75849411
  PAW double counting   =       471.95028863     -472.74090754
  entropy T*S    EENTRO =        -0.00000000
  eigenvalues    EBANDS =       -89.46837376
  atomic energy  EATOM  =       197.04175453
  Solvation  Ediel_sol  =         0.00000000
  ---------------------------------------------------
  free energy    TOTEN  =       -23.91001324 eV

  energy without entropy =      -23.91001324  energy(sigma->0) =      -23.91001324


--------------------------------------------------------------------------------------------------------




 average (electrostatic) potential at core
  the test charge radii are     0.5201  0.6991
  (the norm of the test charge is              1.0000)
       1 -41.2295       2 -41.4089       3 -42.1413       4 -41.3013       5 -57.9569



 E-fermi :  -8.8061     XC(G=0):  -0.7564     alpha+bet : -0.2304


 k-point     1 :       0.0000    0.0000    0.0000
  band No.  band energies     occupation 
      1     -16.8995      2.00000
      2      -9.5593      2.00000
      3      -9.2230      2.00000
      4      -9.0524      2.00000
      5      -0.5465      0.00000
      6       1.0669      0.00000
      7       1.0856      0.00000
      8       1.1299      0.00000


--------------------------------------------------------------------------------------------------------


 soft charge-density along one line, spin component           1
         0         1         2         3         4         5         6         7         8         9
 total charge-density along one line

 pseudopotential strength for first ion, spin component:           1
 -2.339  -4.029  -0.000   0.001   0.002
 -4.029  -6.856  -0.000   0.002   0.004
 -0.000  -0.000  -0.341  -0.000  -0.000
  0.001   0.002  -0.000  -0.340   0.002
  0.002   0.004  -0.000   0.002  -0.337
 total augmentation occupancy for first ion, spin component:           1
  3.416  -0.617   0.010  -0.148  -0.363
 -0.617   0.124  -0.002   0.027   0.068
  0.010  -0.002   0.008  -0.000  -0.001
 -0.148   0.027  -0.000   0.013   0.013
 -0.363   0.068  -0.001   0.013   0.040


------------------------ aborting loop because EDIFF is reached ----------------------------------------


    CHARGE:  cpu time    0.0694: real time    0.0695
    FORLOC:  cpu time    0.0904: real time    0.0906
    FORNL :  cpu time    0.1077: real time    0.1080
    STRESS:  cpu time    0.4039: real time    0.4048
    FORCOR:  cpu time    1.3148: real time    1.3179
    FORHAR:  cpu time    0.4367: real time    0.4377
    MIXING:  cpu time    0.0391: real time    0.0392
    OFIELD:  cpu time    0.0000: real time    0.0000

  FORCE on cell =-STRESS in cart. coord.  units (eV):
  Direction    XX          YY          ZZ          XY          YZ          ZX
  --------------------------------------------------------------------------------------
  Alpha Z     0.26496     0.26496     0.26496
  Ewald      39.53194    44.02544    41.72694     0.73964    -0.48660     1.72313
  Hartree    94.80145    91.41052    94.78950     0.94476     0.32910     0.72336
  E(xc)     -27.23148   -27.23675   -27.22285     0.01583    -0.00178     0.00743
  Local    -194.33424  -192.20023  -195.86180    -2.08448    -0.15188    -2.19666
  n-local   -15.82741   -16.15237   -15.86204     0.09258     0.01959    -0.00145
  augment     0.12775     0.09160     0.12300     0.00639     0.00360    -0.00199
  Kinetic   101.34843   101.63007   100.92921    -0.78082     0.09335    -0.33904
  Fock        0.00000     0.00000     0.00000     0.00000     0.00000     0.00000
  -------------------------------------------------------------------------------------
  Total      -1.31861     1.83323    -1.11307    -1.06610    -0.19462    -0.08522
  in kB      -2.31066     3.21246    -1.95049    -1.86817    -0.34104    -0.14933
  external pressure =       -0.35 kB  Pullay stress =        0.00 kB


 VOLUME and BASIS-vectors are now :
 -----------------------------------------------------------------------------
  energy-cutoff  :      400.00
  volume of cell :      914.30
      direct lattice vectors                 reciprocal lattice vectors
     9.623184200  0.000000000  0.000000000     0.103915708 -0.001152605 -0.002465434
     0.109219800  9.846960200  0.000000000     0.000000000  0.101554183 -0.002714664
     0.231779800  0.257921700  9.648719800     0.000000000  0.000000000  0.103640692

  length of vectors
     9.623184200  9.847565900  9.654948952     0.103951341  0.101590460  0.103640692


 FORCES acting on ions
    electron-ion (+dipol)            ewald-force                    non-local-force                 convergence-correction
 -----------------------------------------------------------------------------------------------
   -.475E+02 0.137E+01 -.192E+02   0.513E+02 -.159E+01 0.207E+02   -.464E+01 0.120E+00 -.190E+01   0.422E-04 0.188E-04 0.103E-04
   0.203E+01 0.255E+02 0.457E+02   -.212E+01 -.279E+02 -.501E+02   0.226E+00 0.261E+01 0.467E+01   -.700E-05 -.779E-05 -.509E-04
   0.145E+02 -.534E+02 0.755E+01   -.170E+02 0.624E+02 -.876E+01   0.169E+01 -.638E+01 0.911E+00   -.138E-04 0.584E-04 -.136E-04
   0.316E+02 0.238E+02 -.333E+02   -.344E+02 -.258E+02 0.362E+02   0.313E+01 0.240E+01 -.331E+01   -.401E-04 -.106E-04 0.281E-04
   -.164E+01 0.540E+01 -.153E+01   0.218E+01 -.707E+01 0.200E+01   0.620E+00 -.135E+01 0.453E+00   -.554E-04 0.173E-03 -.720E-04
 -----------------------------------------------------------------------------------------------
   -.102E+01 0.261E+01 -.821E+00   0.711E-14 0.000E+00 -.711E-14   0.102E+01 -.261E+01 0.821E+00   -.741E-04 0.231E-03 -.982E-04


 POSITION                                       TOTAL-FORCE (eV/Angst)
 -----------------------------------------------------------------------------------
      6.03909      4.69245      4.72006        -0.856497     -0.092623     -0.444631
      4.94907      4.18486      3.32963         0.131790      0.115807      0.276986
      4.72581      5.70528      4.15739        -0.840470      2.566818     -0.300448
      4.30664      4.20655      5.01819         0.395923      0.426208     -0.451600
      4.99148      4.72275      4.29577         1.169254     -3.016210      0.919692
 -----------------------------------------------------------------------------------
    total drift:                               -0.000228     -0.000011      0.000102


--------------------------------------------------------------------------------------------------------



  FREE ENERGIE OF THE ION-ELECTRON SYSTEM (eV)
  ---------------------------------------------------
  free  energy   TOTEN  =       -23.91001324 eV

  energy  without entropy=      -23.91001324  energy(sigma->0) =      -23.91001324



--------------------------------------------------------------------------------------------------------


    POTLOK:  cpu time    1.3106: real time    1.3137


--------------------------------------------------------------------------------------------------------


     LOOP+:  cpu time   37.0386: real time   37.1649
    4ORBIT:  cpu time    0.0000: real time    0.0000

 total amount of memory used by VASP MPI-rank0   235049. kBytes
=======================================================================

   base      :      30000. kBytes
   nonlr-proj:       1127. kBytes
   fftplans  :      72476. kBytes
   grid      :     129302. kBytes
   one-center:         15. kBytes
   wavefun   :       2129. kBytes

  
  
 General timing and accounting informations for this job:
 ========================================================
  
                  Total CPU time used (sec):       38.794
                            User time (sec):       37.546
                          System time (sec):        1.249
                         Elapsed time (sec):       38.933
  
                   Maximum memory used (kb):      331256.
                   Average memory used (kb):           0.
  
                          Minor page faults:       211707
                          Major page faults:            0
                 Voluntary context switches:          135
