6.981919999999999504e+01 7.001739999999999853e+00 5.992849999999999966e+01 6.943089999999999407e+01 5.400170000000000137e+00 5.897840000000000060e+01 6.901829999999999643e+01 5.327759999999999607e+00 6.040259999999999962e+01 6.919230000000000302e+01 6.795720000000000205e+00 6.091199999999999903e+01 6.865970000000000084e+01 6.891269999999999563e+00 5.876830000000000354e+01 6.897509999999999764e+01 7.937780000000000058e+00 5.666219999999999857e+01 6.723779999999999291e+01 7.461979999999999613e+00 5.702389999999999759e+01 6.955370000000000630e+01 6.094020000000000437e+00 5.995720000000000027e+01 6.827599999999999625e+01 7.236419999999999852e+00 5.715619999999999834e+01
5.592340000000000089e+01 8.306919999999999504e+01 6.583740000000000236e+01 5.513239999999999696e+01 8.381999999999999318e+01 6.704319999999999879e+01 5.583089999999999975e+01 8.220770000000000266e+01 6.697010000000000218e+01 5.645430000000000348e+01 8.332659999999999911e+01 6.780379999999999541e+01 5.420089999999999719e+01 8.394589999999999463e+01 6.703610000000000468e+01 5.663380000000000081e+01 8.467629999999999768e+01 6.626460000000000150e+01 5.215859999999999985e+01 8.600870000000000459e+01 6.653459999999999752e+01 5.614540000000000219e+01 8.335280000000000200e+01 6.679160000000000252e+01 5.261350000000000193e+01 8.490609999999999502e+01 6.667680000000000007e+01
1.260000000000000000e+02 5.169369999999999798e+00 2.119450000000000056e+00 1.268679999999999950e+02 5.431630000000000180e+00 9.503799999999999748e-02 1.270619999999999976e+02 3.791129999999999889e+00 1.235060000000000047e+00 1.278979999999999961e+02 5.490899999999999892e+00 1.509179999999999966e+00 1.279890000000000043e+02 5.234759999999999636e+00 3.973180000000000156e+00 1.298249999999999886e+02 5.656699999999999839e+00 3.296570000000000000e+00 1.292810000000000059e+02 6.005429999999999602e+00 5.122790000000000177e+00 1.267439999999999998e+02 4.956909999999999705e+00 1.146300000000000097e+00 1.292390000000000043e+02 5.516169999999999796e+00 4.106869999999999798e+00
