-2.177239177831829693e+03
-2.175021221524761131e+03
-2.184346258045489321e+03
