5.539567431621517990e+00 6.582450617376696123e+00 -6.451824476340339842e-01 -4.578288701536166183e-01 2.824336898686752306e+00 1.334532594575171149e+00 5.979432568145022220e-01 -2.068360618734429224e+00 2.880165631657529257e+00 -2.367086218259839558e+00 -1.082931874613292544e+00 -2.199893947885203094e+00 -1.460633387985341036e+00 5.619803083277191691e-01 -3.952023301241188058e+00 -2.679851276335906696e-01 -4.322602241202955775e-01 -2.755657173988831487e-03 -7.697425844805456663e-01 1.309293255461968682e-02 -3.756440136081859449e-01 -2.472969191712072412e+00 -6.560078161369433225e+00 -7.926523496708682837e-01 1.658734640366917867e+00 1.617701218916631767e-01 3.753453439558699589e+00
9.047719971548998652e-01 -2.164016977095239991e-01 -3.543391774236601233e+00 5.288071098456615937e-01 1.047384724964122854e-01 -4.677402679714085139e-03 -3.798969785429504031e-01 -8.292975661489272454e-01 5.664575763208153925e-01 2.249759109424548154e+00 6.545241403662557245e-01 6.925082846372633272e-01 -4.019780411204448178e+00 2.285017575586905547e+00 -5.566976679138087025e-01 3.247664029822993070e-01 -1.041445476170607259e-01 3.885469416234805795e-01 1.380824128113181670e+00 -1.852511913938545529e+00 3.778754742263211175e-01 -1.909098196807383907e+00 1.807444534138876249e-02 1.873196132048492446e+00 9.198468904562595583e-01 -5.999895979897227477e-02 2.061823845516838338e-01
1.574290863819319819e+00 -8.395423846522358236e-03 -3.498816555044748089e+00 -1.838432449019392179e+00 -1.046277607851357594e+00 1.683582863234895477e+00 -1.060914179449549133e+00 2.728158606341056558e+00 -7.594613077313964178e-01 -3.299342744838093200e+00 -1.539743616272227333e+00 -3.846590219457305948e-01 4.034122642888405608e+00 5.893446643793809336e-01 -1.301065210445081777e-01 1.964096977609093075e+00 5.406995942350465434e-01 -2.421523470084707252e+00 8.481974899395134937e-01 -4.348738021218473415e-01 -1.389748787878170466e+00 4.562284765741711823e+00 -1.329834314536061657e-01 2.848616907709116575e+00 -6.784303315268940260e+00 -6.959289319878559921e-01 4.052115944207316467e+00
