# LAMMPS data file written by OVITO
5 atoms
2 atom types
0.0 9.9229308 xlo xhi
0.0 9.7891255 ylo yhi
0.0 10.2293911 zlo zhi
0.0599988 0.1215866 0.2583242 xy xz yz

Atoms # atomic

1 1 5.4038286 4.0714808 3.6928287
2 1 3.99914 4.8211961 4.4799729
3 1 5.564241 5.6480494 4.5269094
4 1 5.3348732 4.2193976 5.5185046
5 2 5.0792184 4.6825876 4.5525632
