# LAMMPS data file written by OVITO
5 atoms
2 atom types
0.0 9.851596 xlo xhi
0.0 10.2794867 ylo yhi
0.0 9.7927704 zlo zhi
0.1837239 0.0602076 -0.0472551 xy xz yz

Atoms # atomic

1 1 5.4003611 4.1587443 3.5322831
2 1 4.0015202 4.9156762 4.2951951
3 1 5.5658074 5.7890659 4.3372121
4 1 5.3138332 4.2560253 5.2812867
5 2 5.0707359 4.7793203 4.3620219
