# LAMMPS data file written by OVITO
5 atoms
2 atom types
0.0 9.971738 xlo xhi
0.0 9.8759242 ylo yhi
0.0 10.1967201 zlo zhi
-0.2656346 -0.2936924 0.2919752 xy xz yz

Atoms # atomic

1 1 5.1512337 4.1233554 3.677181
2 1 3.6765402 4.8738338 4.4680562
3 1 5.2218952 5.7109428 4.5153928
4 1 4.9959226 4.2618427 5.4958835
5 2 4.7637372 4.7459202 4.537273
