# LAMMPS data file written by OVITO
5 atoms
2 atom types
0.0 10.0436525 xlo xhi
0.0 9.8644438 ylo yhi
0.0 10.1772537 zlo zhi
0.2580534 -0.07606 -0.106857 xy xz yz

Atoms # atomic

1 1 5.4817286 3.9695648 3.6779437
2 1 4.0569925 4.6962557 4.4578619
3 1 5.6570888 5.5257154 4.501657
4 1 5.3723693 4.0487466 5.4827566
5 2 5.1444011 4.5598679 4.5280781
