# LAMMPS data file written by OVITO
5 atoms
2 atom types
0.0 9.965232 xlo xhi
0.0 10.0179625 ylo yhi
0.0 10.1879015 zlo zhi
0.0803952 -0.0382759 -0.002478 xy xz yz

Atoms # atomic

1 1 5.3809042 4.0797725 3.6785634
2 1 3.9536506 4.8118081 4.4667402
3 1 5.530334 5.6634074 4.5101915
4 1 5.2784252 4.1661701 5.4924517
5 2 5.03473 4.6791148 4.5360322
