# LAMMPS data file written by OVITO
5 atoms
2 atom types
0.0 9.7222405 xlo xhi
0.0 9.9483194 ylo yhi
0.0 9.7480393 zlo zhi
0.110344 0.2341656 0.2605766 xy xz yz

Atoms # atomic

1 1 5.3577523 4.1475563 3.5212906
2 1 3.9881986 4.8915024 4.270185
3 1 5.5343528 5.74156 4.3141861
4 1 5.3090963 4.2828407 5.2514572
5 2 5.0459747 4.7646179 4.3437739
