# LAMMPS data file written by OVITO
5 atoms
2 atom types
0.0 9.942708 xlo xhi
0.0 10.0903349 ylo yhi
0.0 9.7866097 zlo zhi
0.1137467 0.2526195 -0.2323225 xy xz yz

Atoms # atomic

1 1 5.4859677 4.0203681 3.5289896
2 1 4.0912814 4.7464376 4.2940598
3 1 5.6645732 5.6041646 4.3312435
4 1 5.4358754 4.0762486 5.2756348
5 2 5.1700983 4.6103215 4.3566699
