# LAMMPS data file written by OVITO
5 atoms
2 atom types
0.0 10.1390553 xlo xhi
0.0 10.0319109 ylo yhi
0.0 10.1249905 zlo zhi
0.093422 0.2396449 0.0019935 xy xz yz

Atoms # atomic

1 1 5.5832443 4.0810342 3.649029
2 1 4.1571775 4.823658 4.4446459
3 1 5.7603779 5.6714692 4.4845953
4 1 5.5221377 4.1846204 5.4633193
5 2 5.2552219 4.6816283 4.502914
