# LAMMPS data file written by OVITO
5 atoms
2 atom types
0.0 10.2940798 xlo xhi
0.0 10.0933514 ylo yhi
0.0 9.9242946 zlo zhi
-0.0764342 -0.195714 -0.2710524 xy xz yz

Atoms # atomic

1 1 5.4380861 4.0090699 3.5786097
2 1 3.941696 4.7238226 4.3549557
3 1 5.5534368 5.5872298 4.3936467
4 1 5.2981515 4.0574088 5.3530045
5 2 5.0566754 4.5946937 4.4202581
