# LAMMPS data file written by OVITO
5 atoms
2 atom types
0.0 9.8942728 xlo xhi
0.0 10.2356024 ylo yhi
0.0 10.1038036 zlo zhi
0.1170034 0.2824488 -0.049496 xy xz yz

Atoms # atomic

1 1 5.4690542 4.149333 3.647172
2 1 4.0852723 4.899108 4.4308415
3 1 5.6601057 5.7648192 4.4655547
4 1 5.4269867 4.2354469 5.4477716
5 2 5.1600318 4.7600055 4.4987378
