ITEM: TIMESTEP
14400
ITEM: NUMBER OF ATOMS
3040
ITEM: BOX BOUNDS xy xz yz pp pp pp
0.0000000000000000e+00 4.4899200000000000e+01 0.0000000000000000e+00
0.0000000000000000e+00 4.4899200000000000e+01 0.0000000000000000e+00
0.0000000000000000e+00 4.4899200000000000e+01 0.0000000000000000e+00
ITEM: ATOMS id type x y z 
1 1 31.3038 34.8172 1.35198 
2 1 31.8405 33.285 1.74066 
3 1 32.1314 32.5352 2.98421 
4 1 31.3045 31.5897 4.08265 
5 1 29.9644 30.8667 3.4575 
6 1 30.4073 29.6156 2.18385 
7 1 31.2816 28.5367 3.02557 
8 1 30.4573 27.1146 3.14444 
9 1 30.7115 25.5907 3.68417 
10 1 29.9365 24.5552 2.25199 
11 1 30.2803 23.1636 2.52667 
12 1 30.6806 22.8302 4.0897 
13 2 31.4112 34.544 0.287654 
14 2 32.0613 35.3799 1.87166 
15 2 30.1446 34.8215 1.48269 
16 2 32.9059 33.0524 1.20704 
17 2 31.0294 32.7771 1.18634 
18 2 32.6526 33.4544 3.66794 
19 2 32.3908 31.4769 2.40054 
20 2 31.4342 32.145 4.99307 
21 2 32.2394 30.9457 4.05305 
22 2 29.5402 31.6534 3.07262 
23 2 29.4219 30.2438 4.22038 
24 2 30.9021 29.9861 1.31171 
25 2 29.5707 28.8993 1.89973 
26 2 31.1903 28.7596 4.07671 
27 2 32.3299 28.1532 2.93358 
28 2 29.6975 26.8462 2.36094 
29 2 29.3145 27.1659 3.81055 
30 2 29.8559 25.8144 4.36236 
31 2 31.7879 25.5506 3.98314 
32 2 30.1972 24.7267 1.24763 
33 2 29.4338 25.6475 2.35797 
34 2 31.0688 22.8065 2.01855 
35 2 29.4442 22.291 2.31854 
36 2 31.5115 23.3626 4.47639 
37 2 31.1288 21.8485 4.29109 
38 2 29.8014 22.671 4.55472 
39 1 8.93372 25.7044 2.22117 
40 1 10.1847 26.3499 2.28187 
41 1 10.8255 27.5764 2.01094 
42 1 19.0451 23.6128 3.68559 
43 1 19.3904 25.221 3.45142 
44 1 18.3794 26.1645 3.24913 
45 1 18.8451 27.3104 4.53864 
46 1 19.4199 28.6946 4.11691 
47 1 19.8133 29.9169 5.23461 
48 1 21.2128 29.8366 6.17624 
49 1 21.8719 31.1473 6.33664 
50 1 20.8084 31.6815 7.43457 
51 2 8.29612 26.1617 1.48363 
52 2 8.56716 25.6079 3.25539 
53 2 9.24063 24.6582 1.88375 
54 2 10.9894 25.6282 2.69766 
55 2 10.4803 25.177 5.42648 
56 2 11.782 27.6945 1.23282 
57 2 10.4543 28.6131 2.40363 
58 2 18.2235 23.3356 4.37925 
59 2 19.819 22.8288 3.37432 
60 2 19.3094 24.8383 2.25391 
61 2 20.3719 25.0701 4.06104 
62 2 17.6065 25.5179 3.355 
63 2 18.6424 26.6937 2.18275 
64 2 19.5112 27.0415 5.21689 
65 2 17.8936 27.7887 4.90519 
66 2 18.64 29.259 3.55461 
67 2 20.0167 28.4195 3.29197 
68 2 18.8324 29.8105 5.56428 
69 2 19.9943 30.7714 4.62247 
70 2 22.0651 29.3668 5.83701 
71 2 20.7583 29.2264 7.06769 
72 2 21.5859 32.0174 5.53353 
73 2 22.9637 30.8634 6.6501 
74 2 19.9206 31.8764 6.73932 
75 2 21.21 32.6817 7.53115 
76 2 20.6199 30.9297 8.27932 
77 1 17.1643 30.9687 19.2301 
78 1 17.5558 29.5468 18.3035 
79 1 16.6262 29.3966 16.8189 
80 1 17.3696 28.9337 15.4713 
81 1 16.6635 27.7409 14.6371 
82 1 17.0533 26.9787 12.9106 
83 1 17.8118 27.6845 11.7926 
84 1 19.3551 27.4649 14.2152 
85 1 20.2602 26.1739 13.818 
86 1 19.7664 24.9359 12.5796 
87 1 20.9954 24.4326 11.8273 
88 1 21.1288 24.5633 10.2562 
89 2 16.9574 31.7292 18.5812 
90 2 17.8869 31.0159 20.1308 
91 2 16.3463 30.1303 19.3705 
92 2 17.7116 28.6325 19.0576 
93 2 18.489 29.8449 18.0179 
94 2 16.4756 30.1659 16.09 
95 2 15.8624 28.5335 16.773 
96 2 18.0415 28.809 16.2708 
97 2 17.6415 29.6321 14.7895 
98 2 15.5801 28.2656 14.6094 
99 2 16.5667 27.0792 15.4847 
100 2 16.2077 26.3849 12.9794 
101 2 17.5637 26.0958 13.2004 
102 2 17.9958 28.7024 12.2916 
103 2 18.0001 27.1029 10.7851 
104 2 19.0497 27.3193 15.2675 
105 2 19.3776 28.4461 13.6029 
106 2 20.9535 26.1201 14.7292 
107 2 21.116 26.7557 13.489 
108 2 19.235 25.2214 11.7338 
109 2 19.2894 24.1305 13.0096 
110 2 21.0737 23.3189 12.1605 
111 2 21.8945 24.5073 12.1904 
112 2 20.324 24.8593 9.5967 
113 2 21.1272 23.4828 10.0743 
114 2 21.9088 25.195 9.96352 
115 1 9.92875 11.5454 19.9455 
116 1 10.8743 12.4386 20.2661 
117 1 12.3911 12.0709 20.1683 
118 1 12.0057 11.0209 18.7574 
119 1 12.6249 1.37232 24.3065 
120 1 11.2269 1.02021 23.6099 
121 1 10.3736 1.55607 22.6162 
122 1 8.83388 1.28268 22.0181 
123 1 8.86363 0.68447 20.2621 
124 1 7.63773 1.08888 19.6481 
125 1 7.63982 0.659162 18.214 
126 1 7.28802 1.66903 17.3134 
127 2 9.00191 11.9318 20.1773 
128 2 9.85349 10.4532 20.6822 
129 2 10.2253 11.188 19.0809 
130 2 10.8517 12.7785 21.3778 
131 2 11.1268 13.1411 19.5949 
132 2 13.0158 11.5325 20.7874 
133 2 13.1853 13.0003 19.6976 
134 2 11.8567 11.6704 17.8928 
135 2 12.0888 10.062 19.2639 
136 2 13.3235 0.54411 24.2555 
137 2 12.7688 1.92262 25.2792 
138 2 10.7701 0.921516 24.7329 
139 2 11.199 44.8969 23.3565 
140 2 11.093 1.76704 21.8421 
141 2 10.5814 2.63777 22.5172 
142 2 8.1951 2.17336 22.1702 
143 2 8.83779 0.361986 22.5622 
144 2 9.23326 44.3262 19.982 
145 2 9.4056 1.42116 19.51 
146 2 7.69715 2.1683 19.5132 
147 2 6.54077 0.724649 19.9744 
148 2 6.51543 0.274456 18.3763 
149 2 8.36578 0.182887 17.5997 
150 2 6.86725 2.3579 18.1822 
151 2 6.43508 1.77993 16.6609 
152 2 7.89685 2.27002 16.285 
153 1 6.0623 13.6362 16.3689 
154 1 5.64133 15.0612 16.8764 
155 1 6.36202 16.1466 17.8494 
156 1 7.7211 16.7572 17.6774 
157 1 8.2109 15.472 18.5027 
158 1 9.74182 15.4762 18.7221 
159 1 10.1958 16.6376 19.6945 
160 1 11.698 17.2143 19.5461 
161 1 12.1243 18.5742 20.3159 
162 1 12.0572 19.7698 19.5641 
163 1 12.0503 21.4055 20.0531 
164 1 12.3294 22.3235 18.7112 
165 2 5.71174 13.3255 17.2854 
166 2 7.20003 13.268 16.2256 
167 2 5.61713 13.1421 15.512 
168 2 4.74632 14.7268 17.5955 
169 2 5.11409 15.8239 16.1418 
170 2 6.13773 15.6791 18.7532 
171 2 5.69093 16.9675 17.6322 
172 2 7.43025 17.7247 18.5676 
173 2 8.17431 16.9108 16.6031 
174 2 8.35729 14.4035 18.3529 
175 2 7.82206 15.8247 19.4776 
176 2 10.1699 15.4779 17.7108 
177 2 9.9914 14.4037 19.0309 
178 2 9.87989 16.1893 20.5849 
179 2 9.15333 17.2499 19.2381 
180 2 11.8102 17.4163 18.4333 
181 2 12.3644 16.1782 19.5862 
182 2 13.3013 18.3556 20.6145 
183 2 11.755 18.7619 21.323 
184 2 11.7024 19.678 18.6905 
185 2 13.1417 20.034 19.2308 
186 2 12.647 21.176 21.0312 
187 2 11.1068 21.3164 20.1884 
188 2 12.1367 21.5454 17.832 
189 2 13.5883 22.6096 18.3761 
190 2 11.5814 23.444 18.8264 
191 1 27.0694 20.2761 30.4164 
192 1 25.8062 20.6119 31.5924 
193 1 24.5975 19.7831 31.9862 
194 1 23.633 19.6154 30.5546 
195 1 22.4444 20.1104 30.3607 
196 1 22.5796 20.1033 28.8802 
197 1 22.2264 21.5153 28.2536 
198 1 21.277 21.7755 27.004 
199 1 20.414 23.1592 26.7989 
200 1 19.2706 22.8775 25.8168 
201 1 18.5986 23.9053 24.8602 
202 1 19.3884 25.0595 24.0529 
203 2 27.3839 19.1114 30.8307 
204 2 28.0583 20.5981 31.073 
205 2 27.1742 20.344 29.3435 
206 2 25.3665 21.4935 31.0516 
207 2 26.3659 20.9816 32.4561 
208 2 23.9691 20.3997 32.8809 
209 2 25.0677 18.9085 32.3366 
210 2 23.4734 18.3411 30.2181 
211 2 24.2301 20.4988 30.1181 
212 2 22.4816 20.9263 31.1584 
213 2 21.2775 20.0986 30.6071 
214 2 22.2914 19.2953 28.1902 
215 2 23.4061 20.3811 28.2319 
216 2 22.8985 22.13 27.6435 
217 2 22.1069 22.2902 29.1353 
218 2 20.2249 20.9224 27.0384 
219 2 21.555 21.4391 25.8138 
220 2 21.2585 23.6561 26.2096 
221 2 20.0836 23.9579 27.4648 
222 2 18.2705 22.8171 26.1199 
223 2 19.5352 21.9832 25.3634 
224 2 17.6986 24.6134 25.2754 
225 2 18.1541 23.5031 24.0008 
226 2 18.1507 25.4413 23.3893 
227 2 19.9779 25.1868 22.8717 
228 2 19.2586 26.0672 24.528 
229 1 25.9218 28.84 40.8606 
230 1 25.0436 29.4472 41.9333 
231 1 25.6647 31.0827 41.7354 
232 1 24.8098 32.3011 42.3347 
233 1 24.8146 33.3008 43.6225 
234 1 23.5471 33.9698 44.2162 
235 1 24.2008 35.5597 43.8021 
236 1 25.0559 36.2699 0.0619588 
237 1 25.9328 37.5936 44.7281 
238 1 26.7174 37.6562 43.0779 
239 1 25.8191 38.3023 41.5205 
240 1 26.3719 38.1455 39.9759 
241 2 27.1056 29.1389 41.0419 
242 2 25.8226 29.3742 39.671 
243 2 25.7065 27.8492 40.317 
244 2 24.5617 29.0514 43.1329 
245 2 24.077 29.2492 41.7536 
246 2 26.3371 31.321 40.9173 
247 2 26.0064 31.0305 42.906 
248 2 23.7075 32.037 42.2259 
249 2 25.0222 33.1584 41.5287 
250 2 25.7901 33.8557 43.8064 
251 2 25.2465 32.5636 44.2706 
252 2 22.9916 34.0758 0.247756 
253 2 22.6216 33.5904 43.6397 
254 2 23.5214 36.2709 43.3171 
255 2 24.9958 35.2707 43.1286 
256 2 25.8275 35.7764 0.717141 
257 2 24.5927 36.9445 0.706667 
258 2 26.7705 37.7092 0.27606 
259 2 25.4754 38.6969 44.3763 
260 2 27.181 36.5693 42.8222 
261 2 27.4575 38.564 43.3679 
262 2 25.417 39.1839 42.0414 
263 2 25.7028 37.2708 41.6931 
264 2 25.7277 39.2433 39.7144 
265 2 25.7272 37.6215 39.3238 
266 2 27.4668 37.7186 39.8704 
267 1 14.7998 14.0263 35.6641 
268 1 15.0248 15.511 36.3877 
269 1 15.5105 16.4504 35.458 
270 1 14.9319 17.9151 35.5632 
271 1 13.2828 17.8859 35.1762 
272 1 12.449 19.3876 35.5121 
273 1 11.8735 20.2285 34.2876 
274 1 10.442 20.4968 34.355 
275 1 9.88988 21.8766 34.0709 
276 1 8.73209 21.9921 33.1074 
277 1 9.10531 20.9973 31.676 
278 1 8.18835 20.6865 30.7232 
279 2 13.5498 14.1806 35.8395 
280 2 15.1349 13.3712 36.3733 
281 2 14.5231 13.9676 34.8075 
282 2 15.7027 15.2284 37.127 
283 2 14.2446 15.9138 37.1755 
284 2 15.4474 16.4571 34.2622 
285 2 16.5694 16.7803 35.5712 
286 2 15.117 18.7999 34.828 
287 2 15.1154 18.4028 36.5228 
288 2 13.0111 16.8937 35.6365 
289 2 12.973 17.9821 34.0756 
290 2 13.2736 19.743 36.266 
291 2 11.4637 19.2613 36.0982 
292 2 12.2412 19.4644 33.3654 
293 2 12.8863 20.8453 34.4651 
294 2 10.3393 20.408 35.3831 
295 2 10.0317 19.5613 33.9055 
296 2 10.2955 22.6619 33.5377 
297 2 9.29874 22.4291 34.9206 
298 2 8.59197 23.0584 32.5948 
299 2 7.82385 21.6929 33.4477 
300 2 9.02578 20.4157 32.6099 
301 2 10.1152 21.1629 31.341 
302 2 8.0254 19.765 30.4789 
303 2 8.76687 20.829 29.6173 
304 2 7.22002 21.1721 30.8988 
305 1 17.2262 7.90112 4.12186 
306 1 18.5504 8.12589 4.861 
307 1 19.0963 9.63873 4.59424 
308 1 18.5314 10.536 5.78264 
309 1 17.541 11.7631 5.40585 
310 1 17.4543 12.5914 6.60107 
311 1 18.3543 13.9151 6.78055 
312 1 18.1743 15.5387 7.10846 
313 1 18.5053 16.4404 5.94338 
314 1 20.105 16.1623 5.42261 
315 1 20.2018 15.3107 4.17881 
316 1 19.7958 15.86 2.35693 
317 2 17.0502 6.794 4.18798 
318 2 17.4291 8.05723 2.97798 
319 2 16.2185 8.53115 4.77799 
320 2 19.125 7.38388 4.3049 
321 2 18.1935 7.73326 5.94057 
322 2 18.5988 9.82209 3.57143 
323 2 20.1863 9.93485 4.32358 
324 2 19.3342 10.7045 6.42472 
325 2 17.7962 10.1742 6.42696 
326 2 16.5685 11.2183 5.4836 
327 2 18.0418 12.0177 4.38043 
328 2 17.3223 11.6772 7.55556 
329 2 16.4531 12.7268 6.37621 
330 2 18.7962 13.8957 5.79456 
331 2 19.3268 13.3612 7.39288 
332 2 18.7307 15.879 7.96228 
333 2 17.1977 15.5199 7.00552 
334 2 18.5808 17.6039 6.00996 
335 2 17.8899 16.1263 5.16179 
336 2 20.854 15.6143 6.04036 
337 2 20.4595 17.1882 5.32352 
338 2 19.4666 14.5326 4.27867 
339 2 21.2222 15.0699 3.8821 
340 2 18.6038 16.2934 2.38122 
341 2 19.3344 14.6745 2.13664 
342 2 20.5944 16.3526 1.93373 
343 1 30.908 21.9286 9.6974 
344 1 29.7421 22.8327 9.78746 
345 1 29.8753 23.8661 10.8119 
346 1 28.9808 25.4418 10.3428 
347 1 28.1771 25.7749 8.77605 
348 1 27.0079 24.6257 8.81249 
349 1 25.7614 24.1944 7.88109 
350 1 24.2707 24.2777 8.02023 
351 1 23.5684 23.5685 6.94362 
352 1 22.1869 23.5756 7.39312 
353 1 21.1039 22.6022 6.9855 
354 1 19.792 23.0604 6.63298 
355 2 31.6119 21.7808 10.641 
356 2 31.855 22.2872 9.11191 
357 2 30.6022 21.0437 9.02847 
358 2 28.6287 22.4382 9.79359 
359 2 29.4529 23.0744 8.6831 
360 2 30.9263 24.3333 10.9989 
361 2 29.1437 23.8099 11.7313 
362 2 29.9671 26.141 10.2346 
363 2 28.1318 25.874 11.0417 
364 2 28.724 25.1952 7.97428 
365 2 27.9905 26.7426 8.27002 
366 2 26.5144 24.8267 9.87134 
367 2 27.5031 23.4824 8.65202 
368 2 26.0449 23.0551 7.35137 
369 2 26.1848 24.4274 7.00958 
370 2 24.0584 25.6605 7.70997 
371 2 24.2486 23.8659 9.02797 
372 2 23.4234 22.5411 6.95573 
373 2 23.6166 24.3355 6.10032 
374 2 21.8734 24.5304 7.65564 
375 2 22.1325 23.3968 8.56853 
376 2 20.7709 21.8998 8.03534 
377 2 21.3668 22.0913 6.1839 
378 2 19.7605 24.1297 6.94642 
379 2 18.9994 22.53 6.82552 
380 2 19.3737 23.5206 5.71354 
381 1 26.259 29.1919 4.55694 
382 1 26.7537 30.0098 5.93933 
383 1 26.5048 31.5318 6.26727 
384 1 25.7074 32.0351 7.86208 
385 1 25.5391 33.7633 7.88862 
386 1 24.4282 34.3049 7.08071 
387 1 24.5495 35.8232 6.46099 
388 1 24.289 36.8484 7.71422 
389 1 23.1014 38.1819 7.53335 
390 1 23.641 39.4299 7.01544 
391 1 24.663 39.7124 5.78951 
392 1 24.0821 40.1548 4.3499 
393 2 25.2842 29.0066 4.89901 
394 2 26.9448 28.2688 4.35999 
395 2 26.3347 29.59 3.37342 
396 2 27.7726 29.8235 5.63743 
397 2 26.613 29.2641 6.74174 
398 2 25.5726 32.1859 5.79448 
399 2 27.3559 32.1139 6.47382 
400 2 25.869 31.3669 8.69156 
401 2 24.6462 31.9241 7.43891 
402 2 26.3282 34.0754 7.12776 
403 2 25.577 33.9808 9.03312 
404 2 23.7844 34.5014 7.87241 
405 2 24.0877 33.4183 6.54182 
406 2 23.7047 35.7221 5.85709 
407 2 25.5614 36.1947 6.32942 
408 2 25.5251 37.3631 7.91876 
409 2 23.7848 36.3776 8.63902 
410 2 22.438 38.3913 8.451 
411 2 22.3479 37.7635 6.94347 
412 2 24.6546 39.7302 8.08337 
413 2 22.6441 40.1597 7.00211 
414 2 25.1541 38.7324 5.78758 
415 2 25.4131 40.3357 6.24494 
416 2 23.7066 39.2448 4.05828 
417 2 24.3961 41.2893 3.89063 
418 2 23.0775 40.4946 4.54189 
419 1 41.5391 2.03728 8.41676 
420 1 39.8565 2.34946 7.75907 
421 1 39.4032 4.04125 6.96003 
422 1 37.9611 3.58068 6.70472 
423 1 37.4558 3.97557 5.24114 
424 1 38.4069 3.46624 4.14051 
425 1 38.1769 4.26024 2.63751 
426 1 42.8954 7.3776 43.6777 
427 1 42.3446 6.17774 44.7618 
428 1 40.6716 6.11335 0.133874 
429 1 40.0047 7.43341 0.0500653 
430 1 38.667 7.48532 0.852754 
431 2 41.6452 0.978769 7.79371 
432 2 41.7489 2.12772 9.41901 
433 2 41.9109 3.00291 8.05544 
434 2 39.5621 2.93368 8.82757 
435 2 39.375 1.1687 7.76749 
436 2 40.3649 3.77737 6.45511 
437 2 39.6474 4.90141 7.67406 
438 2 37.1806 3.63916 7.56204 
439 2 38.0369 2.56173 6.40393 
440 2 38.0538 5.00445 5.33017 
441 2 36.4261 3.98838 5.02459 
442 2 38.4119 2.60346 3.33978 
443 2 39.3771 3.71611 4.35792 
444 2 37.5279 4.99193 2.67589 
445 2 39.2442 4.69073 2.45965 
446 2 42.3086 7.0738 42.8135 
447 2 43.3146 8.37245 44.4006 
448 2 42.8863 5.95774 0.77417 
449 2 42.0694 5.14867 44.3778 
450 2 40.3596 5.54232 0.965335 
451 2 40.4431 5.32478 44.283 
452 2 39.9034 8.03534 44.0751 
453 2 40.801 8.0126 0.770812 
454 2 38.8442 8.13116 1.8385 
455 2 38.8207 6.40234 1.4807 
456 2 37.8931 7.5509 0.242604 
457 1 20.7789 27.6178 44.2894 
458 1 21.8315 27.7866 43.2307 
459 1 23.1913 27.0101 43.5409 
460 1 22.9128 25.6129 42.6289 
461 1 23.9057 24.5546 42.2226 
462 1 23.2335 23.7534 41.1524 
463 1 22.0149 18.2511 33.9308 
464 1 21.0896 19.1656 34.5631 
465 1 20.2104 18.2182 35.5435 
466 1 19.8864 16.778 35.4248 
467 1 20.3627 15.9323 36.5385 
468 1 22.1746 15.867 36.9593 
469 2 19.6476 27.6181 43.9309 
470 2 20.8712 28.249 0.289356 
471 2 21.4746 26.7757 44.4305 
472 2 21.9511 29.0549 43.4079 
473 2 21.1086 27.4638 42.5388 
474 2 23.3451 26.8985 44.5908 
475 2 24.3828 27.4024 43.148 
476 2 22.5356 26.3502 41.6228 
477 2 21.9182 25.3806 42.9327 
478 2 24.5423 24.2261 43.1385 
479 2 24.8994 25.012 41.7892 
480 2 22.251 23.909 40.8039 
481 2 23.9655 23.331 40.3237 
482 2 22.0139 17.2026 33.7211 
483 2 22.9569 18.3279 33.5196 
484 2 20.0786 19.3148 33.9149 
485 2 21.4955 20.2318 34.758 
486 2 19.3414 18.772 35.8995 
487 2 20.945 18.2915 36.2502 
488 2 19.8057 16.1044 34.5848 
489 2 18.8662 16.8338 35.5573 
490 2 19.8829 15.1042 36.8363 
491 2 19.6947 16.2977 37.4463 
492 2 22.2739 15.8564 38.1382 
493 2 22.752 16.8455 36.7021 
494 2 22.8992 15.0703 36.5242 
495 1 8.05874 42.9955 24.6353 
496 1 9.59245 43.4328 25.3256 
497 1 9.78832 43.0802 26.9158 
498 1 11.0499 42.2628 27.7645 
499 1 12.1913 41.2172 26.8868 
500 1 12.6346 40.3399 28.0172 
501 1 12.3996 38.7755 28.0099 
502 1 13.1155 38.0552 26.8384 
503 1 12.2629 36.8385 26.1629 
504 1 11.717 36.7359 24.6192 
505 1 12.1961 35.4533 23.8977 
506 1 11.2795 34.2737 24.0584 
507 2 7.20151 43.6599 24.2009 
508 2 7.29351 42.8893 25.5135 
509 2 7.85646 41.8643 24.087 
510 2 9.75535 44.4557 24.8275 
511 2 10.2152 42.9523 24.6413 
512 2 9.20497 42.2517 27.0105 
513 2 9.27506 43.7772 27.2797 
514 2 10.7068 41.6632 28.5651 
515 2 11.6995 43.0295 28.1364 
516 2 12.4881 42.1441 26.3758 
517 2 11.7752 40.5359 26.0306 
518 2 11.9405 40.7444 28.701 
519 2 13.6745 40.404 27.9706 
520 2 11.332 38.5057 28.2157 
521 2 12.7278 38.3122 29.0908 
522 2 13.9049 37.3219 27.0392 
523 2 13.9044 38.8894 26.4452 
524 2 11.218 36.9832 26.4899 
525 2 12.8431 35.9495 26.5556 
526 2 12.3145 37.3649 24.0161 
527 2 10.6459 36.7896 24.5415 
528 2 13.2177 35.041 24.3087 
529 2 12.2307 35.5314 22.8169 
530 2 11.8685 33.1718 23.9911 
531 2 10.9978 34.2022 22.8765 
532 2 10.9297 34.1248 25.1509 
533 1 36.0232 18.06 43.5656 
534 1 37.3853 18.3659 43.0266 
535 1 38.6059 17.3212 43.7195 
536 1 38.352 16.1388 0.00813404 
537 1 38.2766 14.5169 44.6991 
538 1 37.6477 13.5503 0.967749 
539 1 37.63 12.0276 0.724721 
540 1 37.113 11.7125 44.1153 
541 1 35.4642 12.2215 43.4026 
542 1 34.9672 12.3682 41.996 
543 1 35.1404 13.6281 41.2253 
544 1 35.1777 14.8712 42.2018 
545 2 35.3476 17.7137 42.7597 
546 2 35.2428 18.9193 43.7478 
547 2 35.7884 17.4826 44.3363 
548 2 37.7276 19.3405 42.9102 
549 2 37.2275 18.153 42.0075 
550 2 38.7912 18.1455 44.3263 
551 2 39.4106 16.9322 42.9894 
552 2 37.2921 16.5048 0.462227 
553 2 39.1847 16.5179 0.609636 
554 2 39.2085 14.3385 44.8397 
555 2 37.9307 14.4768 43.6554 
556 2 36.7744 14.1959 1.57262 
557 2 38.1349 13.831 1.88928 
558 2 37.4738 11.0636 1.52823 
559 2 38.6417 11.7054 0.325136 
560 2 37.2584 10.6474 44.016 
561 2 37.7555 12.1282 43.2895 
562 2 35.1001 12.7807 44.1453 
563 2 34.7861 11.2376 43.4641 
564 2 33.9933 12.166 42.2581 
565 2 35.0173 11.1925 41.5357 
566 2 34.3569 13.9647 40.6837 
567 2 36.1888 13.3068 40.5891 
568 2 36.4019 14.8635 42.4629 
569 2 34.3641 14.4616 42.7472 
570 2 35.2119 15.8279 41.71 
571 1 35.566 10.055 25.6157 
572 1 34.5502 11.1904 26.1519 
573 1 33.5879 11.0431 27.3355 
574 1 32.8808 9.58207 28.2597 
575 1 31.4434 9.84952 28.8814 
576 1 31.989 10.1407 30.5961 
577 1 31.0921 11.4694 31.4239 
578 1 30.1832 11.6894 32.8571 
579 1 31.0783 10.6285 33.8753 
580 1 30.6372 9.21449 34.0104 
581 1 29.0693 8.96166 33.8747 
582 1 28.0828 9.92208 34.7892 
583 2 34.9924 8.83438 25.4781 
584 2 36.7835 10.0589 26.3874 
585 2 35.7721 10.2798 24.5904 
586 2 33.7566 11.0745 25.4063 
587 2 35.0785 12.0454 25.8358 
588 2 32.6815 10.8167 26.8629 
589 2 33.499 11.8958 28.1728 
590 2 33.6618 9.49274 28.9268 
591 2 32.9579 8.75013 27.5539 
592 2 30.7454 8.99569 28.7441 
593 2 30.9621 10.7923 28.6613 
594 2 32.9849 10.3824 30.6122 
595 2 31.7445 9.22075 31.0845 
596 2 30.9637 12.2563 30.7387 
597 2 31.9471 11.7492 32.0087 
598 2 29.0465 11.6356 32.9992 
599 2 30.1748 12.874 33.1344 
600 2 31.4534 11.0378 35.099 
601 2 32.1837 10.44 33.5863 
602 2 30.9239 8.46544 34.8594 
603 2 31.2226 8.77946 33.1708 
604 2 28.5571 7.88168 34.3244 
605 2 28.8011 8.61515 32.5955 
606 2 28.7773 10.7603 35.4677 
607 2 27.6331 9.14554 35.4435 
608 2 27.0033 10.0658 34.2134 
609 1 5.61745 20.5544 26.3105 
610 1 5.56958 19.7312 27.8164 
611 1 5.01844 18.2938 27.71 
612 1 3.45754 17.9727 27.9794 
613 1 3.13266 17.2681 29.4105 
614 1 2.38063 17.9295 30.7107 
615 1 2.88138 17.0356 31.9872 
616 1 1.5849 16.9804 32.991 
617 1 39.2751 17.84 23.7741 
618 1 40.0289 17.3377 25.1961 
619 1 39.0002 15.9863 25.7105 
620 1 38.0466 15.3243 24.6398 
621 2 6.76244 20.9072 25.8693 
622 2 5.1588 21.6399 26.0446 
623 2 5.49347 20.039 25.3044 
624 2 4.80749 20.3503 28.0422 
625 2 6.53231 20.1093 28.3724 
626 2 5.79175 17.893 28.4976 
627 2 5.02865 18.1919 26.8062 
628 2 3.22561 17.1601 27.2747 
629 2 3.02488 19.0899 27.6027 
630 2 4.12025 16.542 29.8719 
631 2 2.58759 16.3759 29.506 
632 2 1.33031 17.5168 30.4044 
633 2 2.66575 18.9644 30.8439 
634 2 3.99934 17.2349 32.2626 
635 2 2.68931 16.0426 31.4284 
636 2 1.14042 16.0648 33.5429 
637 2 1.00597 17.8891 32.9446 
638 2 39.2914 18.9 23.6508 
639 2 38.3886 17.2941 22.9901 
640 2 40.0194 18.3016 25.833 
641 2 41.0856 17.029 25.1822 
642 2 38.546 16.6823 26.5046 
643 2 39.4402 15.1446 26.2843 
644 2 37.6698 14.2024 24.7073 
645 2 38.657 14.6945 23.8926 
646 2 37.5952 16.1519 24.1423 
647 1 0.889811 27.8616 38.6616 
648 1 1.26269 26.5009 38.0908 
649 1 1.09386 25.6949 39.3098 
650 1 2.40761 25.3427 39.8228 
651 1 2.04194 24.4098 41.3134 
652 1 1.64287 22.8989 41.0615 
653 1 2.16217 22.1669 42.258 
654 1 1.44506 20.86 42.8724 
655 1 2.72973 19.8904 43.5703 
656 1 4.8701 18.8428 41.5504 
657 1 5.77105 17.6325 41.4921 
658 1 6.87245 17.6871 40.2439 
659 2 0.530059 28.6891 38.0476 
660 2 1.48071 27.7658 39.5764 
661 2 44.8221 27.7156 39.1197 
662 2 2.30367 26.6925 37.9882 
663 2 0.978498 26.1192 37.098 
664 2 0.891513 24.8424 38.6656 
665 2 0.0436058 25.4983 39.9633 
666 2 2.94777 26.1562 40.4198 
667 2 3.02402 24.9669 38.9922 
668 2 1.84112 25.0513 42.178 
669 2 3.11669 24.2918 41.4091 
670 2 2.1189 22.1269 40.2842 
671 2 0.548051 22.8015 41.196 
672 2 2.77324 22.9462 42.7442 
673 2 2.89472 21.2767 41.9763 
674 2 1.12795 20.1579 42.1833 
675 2 0.424503 20.7719 43.7633 
676 2 3.10489 18.7952 43.8138 
677 2 3.65438 20.3942 44.0654 
678 2 5.67361 19.8769 41.6288 
679 2 3.90174 18.4368 41.6488 
680 2 4.84033 16.9781 41.2203 
681 2 6.32628 17.1468 42.2899 
682 2 6.9049 16.672 40.3953 
683 2 7.77772 18.5285 40.423 
684 2 6.71476 18.061 39.3706 
685 1 25.8683 29.5608 11.036 
686 1 24.7105 30.5181 12.053 
687 1 23.6571 29.8326 12.8197 
688 1 23.2473 30.5214 14.1465 
689 1 22.4963 31.7947 14.2751 
690 1 17.1864 35.6091 8.84646 
691 1 17.0435 35.3785 10.34 
692 1 18.2474 34.9464 11.2079 
693 1 18.5814 34.3626 12.6263 
694 1 18.1775 32.8875 12.8464 
695 1 18.0292 32.0072 11.4668 
696 1 19.3865 31.546 10.5306 
697 2 26.0857 29.871 9.98237 
698 2 25.8672 28.5466 10.7774 
699 2 26.9262 29.4313 11.4585 
700 2 24.5974 31.2205 11.216 
701 2 25.1812 31.1855 12.8184 
702 2 23.753 28.6952 13.4447 
703 2 22.9603 29.7422 12.1175 
704 2 24.3173 31.0224 14.6959 
705 2 22.3487 29.9949 14.6611 
706 2 22.5197 32.537 14.9275 
707 2 21.3816 31.2973 14.0778 
708 2 17.9048 35.105 8.08357 
709 2 16.6346 36.6142 8.45569 
710 2 16.384 34.5558 10.6498 
711 2 16.5607 36.2784 10.5356 
712 2 18.114 36.0248 11.4735 
713 2 19.1957 34.8067 10.8556 
714 2 17.8382 34.8843 13.2368 
715 2 19.6166 34.5944 12.8146 
716 2 17.2324 32.7253 13.1431 
717 2 18.7159 32.4867 13.7491 
718 2 17.1584 32.3849 10.6623 
719 2 17.5154 31.1127 11.9165 
720 2 19.5309 32.4384 9.70749 
721 2 19.0986 30.5583 10.0355 
722 2 20.4957 31.3812 10.82 
723 1 17.3867 4.77933 0.886582 
724 1 17.8698 5.06109 44.1445 
725 1 17.7304 4.14566 43.0853 
726 1 17.8045 2.31264 43.398 
727 1 16.7496 1.46428 44.1626 
728 1 16.2421 1.38328 0.618531 
729 1 18.968 40.4956 3.39813 
730 1 17.7753 39.6641 3.89223 
731 1 17.9902 38.6259 4.92174 
732 1 17.8726 39.5232 6.18501 
733 1 17.28 38.6174 7.78524 
734 1 16.9992 39.6004 8.99776 
735 2 17.7231 3.77236 1.13134 
736 2 16.1593 4.66847 0.38802 
737 2 17.741 5.81361 1.30885 
738 2 19.0751 5.23257 44.0917 
739 2 17.4555 6.09457 43.7809 
740 2 18.3428 4.43845 42.3166 
741 2 16.7235 4.17007 42.6744 
742 2 18.6745 1.68947 43.7386 
743 2 17.8753 1.75806 42.4898 
744 2 16.7083 0.496493 43.6211 
745 2 15.9406 1.7881 43.6505 
746 2 15.3749 1.83771 1.03848 
747 2 17.0486 1.30698 1.38654 
748 2 18.4941 41.412 2.84001 
749 2 19.4889 39.9737 2.48979 
750 2 16.9452 39.5088 3.23403 
751 2 17.387 40.7329 4.04677 
752 2 18.7783 38.1026 5.08536 
753 2 17.0116 37.7344 4.83058 
754 2 16.8796 40.1003 6.00505 
755 2 18.8281 39.8181 6.48221 
756 2 17.734 37.5902 7.6487 
757 2 16.2585 38.2175 7.47243 
758 2 16.0109 39.9941 8.49962 
759 2 17.3348 40.2281 9.82017 
760 2 16.5017 38.434 9.80515 
761 1 23.727 10.7268 37.5088 
762 1 22.9082 9.22491 37.6783 
763 1 21.9886 8.7258 38.7538 
764 1 22.1059 9.39921 39.9485 
765 1 21.8604 9.62181 41.7374 
766 1 20.7751 9.59013 42.6614 
767 1 21.466 9.03218 43.8215 
768 1 22.6673 9.61272 44.6514 
769 1 22.4617 10.0536 1.40484 
770 1 23.8601 9.81613 2.20632 
771 1 23.4688 10.253 3.77749 
772 1 24.4537 9.94114 4.73915 
773 2 24.4073 11.2183 38.2164 
774 2 22.5509 11.1593 37.9516 
775 2 23.7538 10.8623 36.4126 
776 2 23.5181 8.44842 37.29 
777 2 22.4457 9.47725 36.7028 
778 2 21.8632 7.52618 38.8096 
779 2 21.0372 9.32288 38.2506 
780 2 21.8545 10.3785 39.4572 
781 2 23.1582 9.77966 40.057 
782 2 22.7215 10.4218 42.036 
783 2 22.0899 8.58069 42.0906 
784 2 19.8696 8.91309 42.284 
785 2 20.0401 10.3879 42.8294 
786 2 21.6712 7.95097 43.6086 
787 2 20.5168 8.69462 44.5866 
788 2 23.1368 10.3642 43.9774 
789 2 23.3396 8.80418 -0.0652695 
790 2 21.5603 9.34405 1.80936 
791 2 22.4753 11.1801 1.14179 
792 2 24.484 10.589 1.75652 
793 2 23.9343 8.74569 2.03091 
794 2 22.895 9.39202 3.77609 
795 2 23.1505 11.2481 4.03998 
796 2 24.5405 8.92815 5.2213 
797 2 24.4092 10.7929 5.40874 
798 2 25.4232 10.247 4.31319 
799 1 37.2007 0.362907 36.8494 
800 1 35.8977 44.5081 36.8846 
801 1 34.8637 0.629364 36.1937 
802 1 34.3693 0.414366 34.7296 
803 1 33.2683 44.3936 34.2792 
804 1 32.7212 44.1698 32.8614 
805 1 33.1088 44.576 31.1039 
806 1 32.3226 43.3262 29.8663 
807 1 30.8136 43.1445 29.8429 
808 1 30.655 41.5629 29.7395 
809 1 31.6751 40.7429 28.8966 
810 1 31.0669 39.7766 28.0076 
811 2 37.2637 1.26199 37.5488 
812 2 36.9499 1.18153 35.938 
813 2 38.2275 44.5998 36.7842 
814 2 35.7486 44.2894 37.9741 
815 2 35.8398 43.5264 36.2293 
816 2 35.464 1.40269 35.9077 
817 2 34.0751 1.0451 36.9496 
818 2 35.3474 0.478225 34.2652 
819 2 34.1186 1.69473 34.2587 
820 2 32.522 43.8411 34.8774 
821 2 34.1236 43.6256 34.4622 
822 2 31.7645 -0.0933928 32.9615 
823 2 32.041 43.2845 32.589 
824 2 34.2226 44.592 30.9773 
825 2 32.8235 0.697023 30.9092 
826 2 32.7665 42.4464 30.3734 
827 2 32.4316 43.8903 28.8022 
828 2 30.5329 43.7835 29.0805 
829 2 30.3956 43.4079 30.69 
830 2 29.6948 41.5604 29.138 
831 2 30.5148 41.1482 30.9221 
832 2 32.3823 40.3054 29.7685 
833 2 32.4197 41.1082 28.3826 
834 2 31.6821 39.3393 26.9919 
835 2 30.3565 40.4046 27.5406 
836 2 30.5398 39.1726 28.9777 
837 1 2.34752 20.8956 8.76775 
838 1 2.72611 22.3519 8.44182 
839 1 1.48409 23.1702 8.84229 
840 1 1.03379 24.6995 8.7634 
841 1 0.14908 25.3323 9.91805 
842 1 43.7123 26.1798 9.40117 
843 1 42.2557 26.5864 10.4268 
844 1 41.6794 27.365 11.6504 
845 1 39.9003 27.2789 11.335 
846 1 39.1168 28.6597 10.9118 
847 1 37.8634 28.9507 10.269 
848 1 38.1179 30.4114 9.29767 
849 2 2.43944 20.1975 7.9948 
850 2 1.16976 20.9535 9.09388 
851 2 2.30974 20.2866 9.70596 
852 2 3.43537 22.1536 7.62856 
853 2 3.60903 22.6098 9.24324 
854 2 1.48847 23.21 10.0198 
855 2 0.839719 23.0549 7.93948 
856 2 0.339637 24.6305 7.81514 
857 2 1.83325 25.5054 8.72899 
858 2 0.725551 26.5133 10.287 
859 2 0.163091 24.9026 10.9854 
860 2 43.4025 25.8022 8.26249 
861 2 43.9364 27.2398 9.09182 
862 2 42.3107 25.401 10.4671 
863 2 41.5922 26.6983 9.67141 
864 2 41.8184 28.4424 11.6893 
865 2 42.0926 26.7653 12.4196 
866 2 39.4595 26.608 11.9741 
867 2 39.7214 26.6578 10.3912 
868 2 39.6803 29.4956 10.9312 
869 2 38.7477 28.7173 12.0615 
870 2 37.0406 29.1118 10.9547 
871 2 37.5821 28.1778 9.43191 
872 2 38.7188 30.9311 9.97236 
873 2 36.989 30.4974 9.15699 
874 2 38.7574 30.2587 8.45918 
875 1 21.0779 16.451 29.1808 
876 1 20.8116 16.0427 30.5842 
877 1 19.486 14.9536 30.9974 
878 1 19.069 15.0272 32.5214 
879 1 17.5343 14.3178 32.6521 
880 1 17.5841 12.9549 33.3566 
881 1 16.3127 12.3228 33.2503 
882 1 16.1963 10.949 33.6874 
883 1 14.9429 10.164 33.9257 
884 1 15.1529 8.51674 34.1136 
885 1 13.8682 7.75855 33.8406 
886 1 12.5921 7.48942 34.6842 
887 2 21.8166 17.1183 29.2906 
888 2 20.139 17.102 28.4494 
889 2 21.426 15.5383 28.2925 
890 2 20.3986 17.2203 30.8656 
891 2 21.544 15.8185 31.2362 
892 2 20.0053 14.0307 30.6482 
893 2 18.5854 15.3317 30.5335 
894 2 18.8055 16.0284 32.8299 
895 2 19.447 14.1753 33.2376 
896 2 17.4033 13.9955 31.5254 
897 2 16.7515 14.6984 33.3146 
898 2 17.7122 13.5769 34.2192 
899 2 18.5696 12.246 33.2492 
900 2 15.6272 12.1123 32.18 
901 2 15.8699 13.1066 33.7808 
902 2 16.5647 10.8275 34.8913 
903 2 16.8791 10.2505 33.222 
904 2 14.1648 10.2387 33.1606 
905 2 14.425 11.0016 34.6918 
906 2 15.1936 8.69316 35.3293 
907 2 16.0375 7.76726 34.4121 
908 2 14.2945 6.64585 33.8038 
909 2 13.5661 8.02746 32.8291 
910 2 13.0622 6.94683 35.6184 
911 2 12.1401 6.71646 34.5276 
912 2 12.2602 8.51588 34.6644 
913 1 34.1586 42.2529 11.1321 
914 1 33.3896 42.6151 12.4007 
915 1 33.3726 41.3461 13.2708 
916 1 32.9391 39.9527 12.2338 
917 1 31.597 39.084 14.0913 
918 1 31.6626 37.3863 14.7038 
919 1 31.3942 37.5196 16.5933 
920 1 30.0019 37.3396 17.2328 
921 1 24.9547 41.4888 12.9259 
922 1 24.3956 42.361 13.8726 
923 1 25.3783 42.7138 14.9808 
924 1 24.6313 44.0826 15.5823 
925 2 34.9259 42.9886 11.1233 
926 2 33.7562 42.3185 10.0093 
927 2 34.7579 41.5314 11.62 
928 2 32.246 43.0163 12.4718 
929 2 33.9266 43.4175 12.8813 
930 2 32.4172 41.5134 13.7971 
931 2 34.1852 41.2235 13.7936 
932 2 34.0156 39.4084 12.0949 
933 2 32.182 40.4748 11.4218 
934 2 30.6746 39.4228 14.2681 
935 2 32.3097 39.634 14.55 
936 2 32.7697 36.9487 14.7119 
937 2 30.6502 36.9691 14.6937 
938 2 31.2414 38.6349 16.5018 
939 2 32.4283 37.0581 17.1141 
940 2 29.2647 37.6906 16.5196 
941 2 30.1076 37.3876 18.3482 
942 2 25.9207 41.5154 12.363 
943 2 24.5173 40.484 12.6154 
944 2 23.39 41.9116 14.4339 
945 2 24.0053 43.4471 13.5134 
946 2 26.2376 43.2393 14.7077 
947 2 25.4586 41.8662 15.529 
948 2 25.4348 44.7298 14.9936 
949 2 24.8334 44.5856 16.5589 
950 2 23.8227 44.6083 15.407 
951 1 23.8169 11.8828 16.0936 
952 1 22.7524 10.9013 16.3128 
953 1 22.2818 9.79861 15.1463 
954 1 21.2488 8.61826 15.3425 
955 1 19.8983 8.98536 16.1226 
956 1 18.3607 7.91584 15.916 
957 1 16.929 8.4963 15.0721 
958 1 15.9592 7.98513 13.6006 
959 1 16.9688 7.95005 12.4491 
960 1 16.1136 7.60247 11.1727 
961 1 16.3535 6.19152 10.4767 
962 1 16.4422 6.12299 8.96335 
963 2 23.8058 12.9843 15.7821 
964 2 24.8097 11.8684 15.5543 
965 2 24.7177 11.5983 16.9127 
966 2 21.8042 11.6836 16.5919 
967 2 22.5957 10.6095 17.3578 
968 2 23.3665 9.11683 15.032 
969 2 22.3688 10.3228 14.1844 