 Entering Gaussian System, Link 0=g16
 Input=input0_old.gjf
 Output=input0_old.log
 Initial command:
 /home/jzzeng/soft/g16/l1.exe "/home/jzzeng/0719dodecane/gen2/gen/testgaussian/Gau-32118.inp" -scrdir="/home/jzzeng/0719dodecane/gen2/gen/testgaussian/"
 Entering Link 1 = /home/jzzeng/soft/g16/l1.exe PID=     32119.
  
 Copyright (c) 1988,1990,1992,1993,1995,1998,2003,2009,2016,
            Gaussian, Inc.  All Rights Reserved.
  
 This is part of the Gaussian(R) 16 program.  It is based on
 the Gaussian(R) 09 system (copyright 2009, Gaussian, Inc.),
 the Gaussian(R) 03 system (copyright 2003, Gaussian, Inc.),
 the Gaussian(R) 98 system (copyright 1998, Gaussian, Inc.),
 the Gaussian(R) 94 system (copyright 1995, Gaussian, Inc.),
 the Gaussian 92(TM) system (copyright 1992, Gaussian, Inc.),
 the Gaussian 90(TM) system (copyright 1990, Gaussian, Inc.),
 the Gaussian 88(TM) system (copyright 1988, Gaussian, Inc.),
 the Gaussian 86(TM) system (copyright 1986, Carnegie Mellon
 University), and the Gaussian 82(TM) system (copyright 1983,
 Carnegie Mellon University). Gaussian is a federally registered
 trademark of Gaussian, Inc.
  
 This software contains proprietary and confidential information,
 including trade secrets, belonging to Gaussian, Inc.
  
 This software is provided under written license and may be
 used, copied, transmitted, or stored only in accord with that
 written license.
  
 The following legend is applicable only to US Government
 contracts under FAR:
  
                    RESTRICTED RIGHTS LEGEND
  
 Use, reproduction and disclosure by the US Government is
 subject to restrictions as set forth in subparagraphs (a)
 and (c) of the Commercial Computer Software - Restricted
 Rights clause in FAR 52.227-19.
  
 Gaussian, Inc.
 340 Quinnipiac St., Bldg. 40, Wallingford CT 06492
  
  
 ---------------------------------------------------------------
 Warning -- This program may not be used in any manner that
 competes with the business of Gaussian, Inc. or will provide
 assistance to any competitor of Gaussian, Inc.  The licensee
 of this program is prohibited from giving any competitor of
 Gaussian, Inc. access to this program.  By using this program,
 the user acknowledges that Gaussian, Inc. is engaged in the
 business of creating and licensing software in the field of
 computational chemistry and represents and warrants to the
 licensee that it is not a competitor of Gaussian, Inc. and that
 it will not use this program in any manner prohibited above.
 ---------------------------------------------------------------
  

 Cite this work as:
 Gaussian 16, Revision A.03,
 M. J. Frisch, G. W. Trucks, H. B. Schlegel, G. E. Scuseria, 
 M. A. Robb, J. R. Cheeseman, G. Scalmani, V. Barone, 
 G. A. Petersson, H. Nakatsuji, X. Li, M. Caricato, A. V. Marenich, 
 J. Bloino, B. G. Janesko, R. Gomperts, B. Mennucci, H. P. Hratchian, 
 J. V. Ortiz, A. F. Izmaylov, J. L. Sonnenberg, D. Williams-Young, 
 F. Ding, F. Lipparini, F. Egidi, J. Goings, B. Peng, A. Petrone, 
 T. Henderson, D. Ranasinghe, V. G. Zakrzewski, J. Gao, N. Rega, 
 G. Zheng, W. Liang, M. Hada, M. Ehara, K. Toyota, R. Fukuda, 
 J. Hasegawa, M. Ishida, T. Nakajima, Y. Honda, O. Kitao, H. Nakai, 
 T. Vreven, K. Throssell, J. A. Montgomery, Jr., J. E. Peralta, 
 F. Ogliaro, M. J. Bearpark, J. J. Heyd, E. N. Brothers, K. N. Kudin, 
 V. N. Staroverov, T. A. Keith, R. Kobayashi, J. Normand, 
 K. Raghavachari, A. P. Rendell, J. C. Burant, S. S. Iyengar, 
 J. Tomasi, M. Cossi, J. M. Millam, M. Klene, C. Adamo, R. Cammi, 
 J. W. Ochterski, R. L. Martin, K. Morokuma, O. Farkas, 
 J. B. Foresman, and D. J. Fox, Gaussian, Inc., Wallingford CT, 2016.
 
 ******************************************
 Gaussian 16:  ES64L-G16RevA.03 25-Dec-2016
                 6-Aug-2019 
 ******************************************
 %chk=906d90ba-b84f-11e9-b2da-ac1f6b15e346.chk
 %nproc=28
 Will use up to   28 processors via shared memory.
 -----------------------------------------------
 #mn15/6-31g** stable=opt nosymm scf(maxcyc=512)
 -----------------------------------------------
 1/38=1,172=1/1;
 2/12=2,15=1,17=6,18=5,40=1/2;
 3/5=1,6=6,7=101,11=2,25=1,30=1,74=-73/1,2,3;
 4//1;
 5/5=2,7=512,38=5/2;
 6/7=2,8=2,9=2,10=2,28=1/1;
 8/6=1,10=90,11=11/1;
 9/8=-3,42=1,46=1/14;
 5/5=2,7=512,8=3,17=40,38=5/8(-2);
 6/7=2,8=2,9=2,10=2,28=1/1;
 99/5=1,9=1/99;
 -----
 DPGEN
 -----
 Symbolic Z-matrix:
 Charge =  0 Multiplicity = 2
 C                     40.9287   21.974    38.4243 
 C                     39.6113   21.9465   39.4466 
 C                     39.5837   21.9359   41.0881 
 C                     40.5351   20.8477   41.0192 
 C                     41.6708   21.2669   42.0895 
 C                     41.5102   21.4504   43.6033 
 C                     42.0937   22.4671   44.6771 
 H                     40.7274   22.0739   37.4974 
 H                     41.6781   22.7849   38.7914 
 H                     39.0785   20.9028   38.9622 
 H                     39.1605   22.8685   39.1868 
 H                     38.5759   21.6821   41.1571 
 H                     39.733    22.9592   41.3309 
 H                     40.9748   20.9371   40.0151 
 H                     39.7529   20.0048   40.8674 
 H                     42.1817   22.2685   41.9158 
 H                     42.6849   20.3254   41.9751 
 H                     41.6634   20.5363   43.7852 
 H                     40.412    21.2711   43.5718 
 H                     42.8889   23.3784   44.3826 
 
                          Input orientation:                          
 ---------------------------------------------------------------------
 Center     Atomic      Atomic             Coordinates (Angstroms)
 Number     Number       Type             X           Y           Z
 ---------------------------------------------------------------------
      1          6           0       40.928700   21.974000   38.424300
      2          6           0       39.611300   21.946500   39.446600
      3          6           0       39.583700   21.935900   41.088100
      4          6           0       40.535100   20.847700   41.019200
      5          6           0       41.670800   21.266900   42.089500
      6          6           0       41.510200   21.450400   43.603300
      7          6           0       42.093700   22.467100   44.677100
      8          1           0       40.727400   22.073900   37.497400
      9          1           0       41.678100   22.784900   38.791400
     10          1           0       39.078500   20.902800   38.962200
     11          1           0       39.160500   22.868500   39.186800
     12          1           0       38.575900   21.682100   41.157100
     13          1           0       39.733000   22.959200   41.330900
     14          1           0       40.974800   20.937100   40.015100
     15          1           0       39.752900   20.004800   40.867400
     16          1           0       42.181700   22.268500   41.915800
     17          1           0       42.684900   20.325400   41.975100
     18          1           0       41.663400   20.536300   43.785200
     19          1           0       40.412000   21.271100   43.571800
     20          1           0       42.888900   23.378400   44.382600
 ---------------------------------------------------------------------
                    Distance matrix (angstroms):
                    1          2          3          4          5
     1  C    0.000000
     2  C    1.667752   0.000000
     3  C    2.984344   1.641766   0.000000
     4  C    2.856042   2.129281   1.447097   0.000000
     5  C    3.805837   3.418818   2.409637   1.615885   0.000000
     6  C    5.237780   4.596748   3.205206   2.826949   1.533315
     7  C    6.379489   5.813043   4.411711   4.293242   2.883574
     8  H    0.953753   2.249731   3.770971   3.734116   4.756956
     9  H    1.163581   2.324621   3.222133   3.165799   3.630681
    10  H    2.204551   1.268002   2.417017   2.521105   4.078308
    11  H    2.123221   1.058679   2.159579   3.054644   4.158413
    12  H    3.617882   2.016872   1.041555   2.133941   3.258860
    13  H    3.293728   2.142652   1.062255   2.280121   2.682242
    14  H    1.899456   1.789193   2.020913   1.099793   2.212763
    15  H    3.350969   2.410171   1.951021   1.159897   2.600916
    16  H    3.721198   3.578769   2.746874   2.352415   1.137714
    17  H    4.290723   4.297475   3.605263   2.410017   1.388491
    18  H    5.598751   5.002322   3.682171   3.003462   1.846410
    19  H    5.220901   4.256120   2.701260   2.590403   1.944687
    20  H    6.427757   6.095662   4.884556   4.822580   3.346716
                    6          7          8          9         10
     6  C    0.000000
     7  C    1.589716   0.000000
     8  H    6.187370   7.319117   0.000000
     9  H    4.996345   5.908907   1.756072   0.000000
    10  H    5.268096   6.648199   2.497196   3.213937   0.000000
    11  H    5.199766   6.237642   2.437342   2.549831   1.980188
    12  H    3.827231   5.038010   4.263316   4.054177   2.382751
    13  H    3.255567   4.124575   4.058117   3.203569   3.204355
    14  H    3.664056   5.032602   2.773506   2.325175   2.169269
    15  H    3.558513   5.104516   4.072803   3.968013   2.211562
    16  H    1.991948   2.769831   4.655654   3.206580   4.496525
    17  H    2.301430   3.498171   5.190265   4.147135   4.734668
    18  H    0.944530   2.169938   6.540393   5.476720   5.484283
    19  H    1.113186   2.340987   6.135332   5.171733   4.812721
    20  H    2.495056   1.244806   7.333470   5.751504   7.073081
                   11         12         13         14         15
    11  H    0.000000
    12  H    2.373054   0.000000
    13  H    2.221069   1.732071   0.000000
    14  H    2.776341   2.759331   2.713353   0.000000
    15  H    3.372852   2.069442   2.990603   1.757452   0.000000
    16  H    4.115227   3.731124   2.610614   2.615701   3.481745
    17  H    5.163659   4.403821   4.008193   2.672119   3.150620
    18  H    5.731400   4.213362   3.952275   3.853371   3.527897
    19  H    4.831787   3.061202   2.886582   3.616409   3.058056
    20  H    6.415396   5.646526   4.410023   5.357124   5.794161
                   16         17         18         19         20
    16  H    0.000000
    17  H    2.008075   0.000000
    18  H    2.600732   2.089115   0.000000
    19  H    2.620874   2.934259   1.466790   0.000000
    20  H    2.795910   3.893389   3.152185   3.351588   0.000000
 Symmetry turned off by external request.
 Stoichiometry    C7H13(2)
 Framework group  C1[X(C7H13)]
 Deg. of freedom    54
 Full point group                 C1      NOp   1
 Rotational constants (GHZ):           5.6776348           1.0491079           1.0131359
 Standard basis: 6-31G(d,p) (6D, 7F)
   170 basis functions,   287 primitive gaussians,   170 cartesian basis functions
    28 alpha electrons       27 beta electrons
       nuclear repulsion energy       284.9956437047 Hartrees.
 NAtoms=   20 NActive=   20 NUniq=   20 SFac= 1.00D+00 NAtFMM=   60 NAOKFM=F Big=F
 Integral buffers will be    131072 words long.
 Raffenetti 2 integral format.
 Two-electron integral symmetry is turned off.
 One-electron integrals computed using PRISM.
 NBasis=   170 RedAO= T EigKep=  3.75D-03  NBF=   170
 NBsUse=   170 1.00D-06 EigRej= -1.00D+00 NBFU=   170
 ExpMin= 1.61D-01 ExpMax= 3.05D+03 ExpMxC= 4.57D+02 IAcc=3 IRadAn=         5 AccDes= 0.00D+00
 Harris functional with IExCor= 1009 and IRadAn=       5 diagonalized for initial guess.
 HarFok:  IExCor= 1009 AccDes= 0.00D+00 IRadAn=         5 IDoV= 1 UseB2=F ITyADJ=14
 ICtDFT=  3500011 ScaDFX=  1.000000  1.000000  1.000000  1.000000
 FoFCou: FMM=F IPFlag=           0 FMFlag=      100000 FMFlg1=           0
         NFxFlg=           0 DoJE=T BraDBF=F KetDBF=T FulRan=T
         wScrn=  0.000000 ICntrl=       500 IOpCl=  0 I1Cent=   200000004 NGrid=           0
         NMat0=    1 NMatS0=      1 NMatT0=    0 NMatD0=    1 NMtDS0=    0 NMtDT0=    0
 Symmetry not used in FoFCou.
 Initial guess <Sx>= 0.0000 <Sy>= 0.0000 <Sz>= 0.5000 <S**2>= 0.7500 S= 0.5000
 Requested convergence on RMS density matrix=1.00D-08 within 512 cycles.
 Requested convergence on MAX density matrix=1.00D-06.
 Requested convergence on             energy=1.00D-06.
 No special actions if energy rises.
 Integral accuracy reduced to 1.0D-05 until final iterations.
 Initial convergence to 1.0D-05 achieved.  Increase integral accuracy.
 Rare condition: small coef for last iteration:  0.000D+00
 SCF Done:  E(UMN15) =  -273.695891944     A.U. after   34 cycles
            NFock= 34  Conv=0.77D-08     -V/T= 2.0153
 <Sx>= 0.0000 <Sy>= 0.0000 <Sz>= 0.5000 <S**2>= 0.7544 S= 0.5022
 <L.S>=  0.00000000000    
 Annihilation of the first spin contaminant:
 S**2 before annihilation     0.7544,   after     0.7500

 **********************************************************************

            Population analysis using the SCF density.

 **********************************************************************

 Alpha  occ. eigenvalues --  -10.13130 -10.09826 -10.09596 -10.08942 -10.07573
 Alpha  occ. eigenvalues --  -10.06974 -10.06180  -0.87695  -0.82712  -0.75963
 Alpha  occ. eigenvalues --   -0.69796  -0.64932  -0.61763  -0.60839  -0.52347
 Alpha  occ. eigenvalues --   -0.49643  -0.47636  -0.45928  -0.43944  -0.43590
 Alpha  occ. eigenvalues --   -0.41099  -0.40191  -0.35992  -0.35089  -0.33093
 Alpha  occ. eigenvalues --   -0.27422  -0.26332  -0.23976
 Alpha virt. eigenvalues --   -0.06599   0.08750   0.10056   0.11764   0.13162
 Alpha virt. eigenvalues --    0.13481   0.14635   0.17293   0.17955   0.18824
 Alpha virt. eigenvalues --    0.20460   0.21952   0.23090   0.24621   0.25041
 Alpha virt. eigenvalues --    0.25999   0.29692   0.30489   0.33214   0.34063
 Alpha virt. eigenvalues --    0.48653   0.53165   0.54443   0.55699   0.57391
 Alpha virt. eigenvalues --    0.59692   0.59984   0.61020   0.61410   0.63414
 Alpha virt. eigenvalues --    0.65791   0.66029   0.68570   0.72356   0.72870
 Alpha virt. eigenvalues --    0.73542   0.75659   0.77950   0.79657   0.81824
 Alpha virt. eigenvalues --    0.83394   0.84081   0.85591   0.87508   0.87908
 Alpha virt. eigenvalues --    0.90581   0.91817   0.93467   0.96755   0.97995
 Alpha virt. eigenvalues --    0.98228   0.99788   1.01525   1.04597   1.07771
 Alpha virt. eigenvalues --    1.09660   1.15425   1.20935   1.30074   1.33185
 Alpha virt. eigenvalues --    1.38843   1.43226   1.46806   1.52496   1.54788
 Alpha virt. eigenvalues --    1.57158   1.61061   1.61973   1.64247   1.68940
 Alpha virt. eigenvalues --    1.70269   1.72230   1.74084   1.74745   1.76525
 Alpha virt. eigenvalues --    1.78969   1.81552   1.83323   1.87586   1.88882
 Alpha virt. eigenvalues --    1.91554   1.93706   1.96485   1.98684   2.01143
 Alpha virt. eigenvalues --    2.06373   2.08674   2.12860   2.14472   2.16968
 Alpha virt. eigenvalues --    2.20039   2.22952   2.24651   2.26809   2.27145
 Alpha virt. eigenvalues --    2.29205   2.31208   2.32908   2.34300   2.36855
 Alpha virt. eigenvalues --    2.38942   2.41010   2.42887   2.43771   2.45944
 Alpha virt. eigenvalues --    2.50824   2.52451   2.53220   2.55246   2.58075
 Alpha virt. eigenvalues --    2.59289   2.63490   2.65303   2.66635   2.69585
 Alpha virt. eigenvalues --    2.70435   2.79083   2.83971   2.85623   2.86773
 Alpha virt. eigenvalues --    2.89412   2.96144   2.96322   3.01605   3.05785
 Alpha virt. eigenvalues --    3.18449   3.22617   3.25369   3.32456   3.33509
 Alpha virt. eigenvalues --    3.40716   3.43274   3.55859   3.73991   3.76383
 Alpha virt. eigenvalues --    4.00428   4.15483   4.22095   4.33506   4.46623
 Alpha virt. eigenvalues --    4.56471   4.62809
  Beta  occ. eigenvalues --  -10.13130 -10.09843 -10.09599 -10.08198 -10.07525
  Beta  occ. eigenvalues --  -10.06973 -10.06180  -0.87495  -0.82596  -0.73724
  Beta  occ. eigenvalues --   -0.69129  -0.64787  -0.60926  -0.60534  -0.52096
  Beta  occ. eigenvalues --   -0.49095  -0.47533  -0.44802  -0.43693  -0.43175
  Beta  occ. eigenvalues --   -0.40938  -0.39580  -0.35326  -0.34990  -0.32932
  Beta  occ. eigenvalues --   -0.27244  -0.23989
  Beta virt. eigenvalues --   -0.06610  -0.02736   0.08765   0.10135   0.11787
  Beta virt. eigenvalues --    0.13213   0.13489   0.14605   0.17330   0.17888
  Beta virt. eigenvalues --    0.18843   0.20770   0.22501   0.23180   0.24778
  Beta virt. eigenvalues --    0.25081   0.26084   0.29977   0.30705   0.33446
  Beta virt. eigenvalues --    0.34101   0.48988   0.53544   0.54582   0.55767
  Beta virt. eigenvalues --    0.57806   0.59723   0.60253   0.61125   0.62952
  Beta virt. eigenvalues --    0.64243   0.65983   0.68529   0.69909   0.72428
  Beta virt. eigenvalues --    0.72977   0.74375   0.75782   0.77895   0.79595
  Beta virt. eigenvalues --    0.81755   0.83115   0.83495   0.84632   0.87642
  Beta virt. eigenvalues --    0.87899   0.90275   0.91494   0.93665   0.96551
  Beta virt. eigenvalues --    0.97871   0.98471   1.00384   1.00889   1.04698
  Beta virt. eigenvalues --    1.07121   1.09796   1.15437   1.21047   1.30137
  Beta virt. eigenvalues --    1.33234   1.38918   1.43216   1.47836   1.52924
  Beta virt. eigenvalues --    1.54779   1.57152   1.61070   1.62138   1.64216
  Beta virt. eigenvalues --    1.68922   1.70954   1.72122   1.73580   1.75164
  Beta virt. eigenvalues --    1.77111   1.78563   1.81615   1.83108   1.87444
  Beta virt. eigenvalues --    1.88807   1.91920   1.95881   1.96615   1.98639
  Beta virt. eigenvalues --    2.01308   2.06237   2.08218   2.12698   2.13704
  Beta virt. eigenvalues --    2.16606   2.19849   2.22757   2.24411   2.26656
  Beta virt. eigenvalues --    2.26713   2.28715   2.30054   2.31843   2.34233
  Beta virt. eigenvalues --    2.36824   2.38852   2.40914   2.43411   2.43744
  Beta virt. eigenvalues --    2.46230   2.50685   2.52215   2.53158   2.55008
  Beta virt. eigenvalues --    2.58222   2.59229   2.63449   2.64984   2.66374
  Beta virt. eigenvalues --    2.69573   2.71034   2.78577   2.83180   2.83965
  Beta virt. eigenvalues --    2.85543   2.89309   2.96044   2.96123   2.99315
  Beta virt. eigenvalues --    3.05751   3.11862   3.19134   3.25269   3.32402
  Beta virt. eigenvalues --    3.33133   3.40561   3.42922   3.55709   3.62053
  Beta virt. eigenvalues --    3.76363   4.00429   4.17562   4.22728   4.34825
  Beta virt. eigenvalues --    4.46725   4.56349   4.62857
          Condensed to atoms (all electrons):
               1          2          3          4          5          6
     1  C    5.199310   0.368229  -0.013302  -0.055725   0.001017  -0.000017
     2  C    0.368229   5.160096   0.341226  -0.129626   0.009037   0.000263
     3  C   -0.013302   0.341226   5.020096   0.338581  -0.071922  -0.004315
     4  C   -0.055725  -0.129626   0.338581   4.999913   0.322143  -0.014320
     5  C    0.001017   0.009037  -0.071922   0.322143   5.209506   0.273412
     6  C   -0.000017   0.000263  -0.004315  -0.014320   0.273412   5.008597
     7  C    0.000000   0.000008  -0.000071   0.001894  -0.036410   0.397714
     8  H    0.387605  -0.025453   0.001703   0.002133   0.000007  -0.000000
     9  H    0.362948  -0.037978  -0.001513  -0.000362   0.000342  -0.000000
    10  H   -0.045240   0.354312  -0.031098  -0.000109   0.000664  -0.000015
    11  H   -0.048336   0.353282  -0.044553   0.012637  -0.000795   0.000018
    12  H    0.002457  -0.029801   0.390874  -0.027419   0.002072   0.000207
    13  H   -0.001385  -0.024274   0.396589  -0.032238  -0.004509  -0.000932
    14  H    0.021490  -0.090808  -0.090688   0.444207  -0.031908   0.002486
    15  H    0.001405   0.007156  -0.039098   0.345902   0.000228  -0.001767
    16  H    0.000543   0.000656  -0.004960  -0.023415   0.353811  -0.067342
    17  H   -0.000063  -0.000342   0.005060  -0.024999   0.314191  -0.037196
    18  H    0.000002  -0.000035  -0.000213   0.002048  -0.063543   0.393442
    19  H   -0.000004  -0.000161   0.009292  -0.008927  -0.086375   0.362655
    20  H    0.000000   0.000000  -0.000008   0.000082  -0.007368  -0.040860
               7          8          9         10         11         12
     1  C    0.000000   0.387605   0.362948  -0.045240  -0.048336   0.002457
     2  C    0.000008  -0.025453  -0.037978   0.354312   0.353282  -0.029801
     3  C   -0.000071   0.001703  -0.001513  -0.031098  -0.044553   0.390874
     4  C    0.001894   0.002133  -0.000362  -0.000109   0.012637  -0.027419
     5  C   -0.036410   0.000007   0.000342   0.000664  -0.000795   0.002072
     6  C    0.397714  -0.000000  -0.000000  -0.000015   0.000018   0.000207
     7  C    5.456166  -0.000000  -0.000000  -0.000000  -0.000000  -0.000010
     8  H   -0.000000   0.564993  -0.037585  -0.003308   0.000475  -0.000052
     9  H   -0.000000  -0.037585   0.620731   0.004072   0.000411  -0.000032
    10  H   -0.000000  -0.003308   0.004072   0.660172  -0.012351  -0.006063
    11  H   -0.000000   0.000475   0.000411  -0.012351   0.639258  -0.000562
    12  H   -0.000010  -0.000052  -0.000032  -0.006063  -0.000562   0.592608
    13  H   -0.000049  -0.000076   0.001333   0.003192  -0.004268  -0.037542
    14  H   -0.000055  -0.001088  -0.001314  -0.005226   0.010192   0.007654
    15  H   -0.000002  -0.000171   0.000123   0.001828  -0.001012  -0.019420
    16  H   -0.003197  -0.000004   0.000591  -0.000002  -0.000127   0.000082
    17  H    0.000728  -0.000002   0.000038   0.000014   0.000011  -0.000136
    18  H   -0.015871   0.000000   0.000000   0.000001  -0.000000   0.000013
    19  H   -0.009788  -0.000000   0.000001   0.000004   0.000011  -0.000345
    20  H    0.263821   0.000000   0.000000   0.000000  -0.000000   0.000000
              13         14         15         16         17         18
     1  C   -0.001385   0.021490   0.001405   0.000543  -0.000063   0.000002
     2  C   -0.024274  -0.090808   0.007156   0.000656  -0.000342  -0.000035
     3  C    0.396589  -0.090688  -0.039098  -0.004960   0.005060  -0.000213
     4  C   -0.032238   0.444207   0.345902  -0.023415  -0.024999   0.002048
     5  C   -0.004509  -0.031908   0.000228   0.353811   0.314191  -0.063543
     6  C   -0.000932   0.002486  -0.001767  -0.067342  -0.037196   0.393442
     7  C   -0.000049  -0.000055  -0.000002  -0.003197   0.000728  -0.015871
     8  H   -0.000076  -0.001088  -0.000171  -0.000004  -0.000002   0.000000
     9  H    0.001333  -0.001314   0.000123   0.000591   0.000038   0.000000
    10  H    0.003192  -0.005226   0.001828  -0.000002   0.000014   0.000001
    11  H   -0.004268   0.010192  -0.001012  -0.000127   0.000011  -0.000000
    12  H   -0.037542   0.007654  -0.019420   0.000082  -0.000136   0.000013
    13  H    0.581304  -0.000237   0.005706   0.003049   0.000224   0.000094
    14  H   -0.000237   0.652817  -0.040862  -0.006275  -0.000060  -0.000185
    15  H    0.005706  -0.040862   0.635740   0.002307  -0.001297   0.000555
    16  H    0.003049  -0.006275   0.002307   0.656709  -0.020548   0.008927
    17  H    0.000224  -0.000060  -0.001297  -0.020548   0.768109  -0.013355
    18  H    0.000094  -0.000185   0.000555   0.008927  -0.013355   0.539104
    19  H    0.001245   0.000149   0.000721   0.005706   0.007500  -0.020604
    20  H    0.000014  -0.000002   0.000001   0.006938   0.000150   0.002327
              19         20
     1  C   -0.000004   0.000000
     2  C   -0.000161   0.000000
     3  C    0.009292  -0.000008
     4  C   -0.008927   0.000082
     5  C   -0.086375  -0.007368
     6  C    0.362655  -0.040860
     7  C   -0.009788   0.263821
     8  H   -0.000000   0.000000
     9  H    0.000001   0.000000
    10  H    0.000004   0.000000
    11  H    0.000011  -0.000000
    12  H   -0.000345   0.000000
    13  H    0.001245   0.000014
    14  H    0.000149  -0.000002
    15  H    0.000721   0.000001
    16  H    0.005706   0.006938
    17  H    0.007500   0.000150
    18  H   -0.020604   0.002327
    19  H    0.600880   0.002194
    20  H    0.002194   0.706801
          Atomic-Atomic Spin Densities.
               1          2          3          4          5          6
     1  C    1.158473  -0.040158   0.000112  -0.024312   0.000206  -0.000003
     2  C   -0.040158  -0.037085   0.005398   0.009140   0.000101  -0.000003
     3  C    0.000112   0.005398  -0.004696  -0.004583  -0.000149   0.000008
     4  C   -0.024312   0.009140  -0.004583   0.085800  -0.001047  -0.000477
     5  C    0.000206   0.000101  -0.000149  -0.001047  -0.005052   0.000883
     6  C   -0.000003  -0.000003   0.000008  -0.000477   0.000883   0.001874
     7  C    0.000000   0.000000  -0.000001   0.000020  -0.000024  -0.000143
     8  H   -0.008441   0.002084  -0.000296   0.000498  -0.000006   0.000000
     9  H   -0.003489   0.003128   0.000528   0.001351   0.000024  -0.000001
    10  H   -0.006907   0.004341  -0.000358   0.002527  -0.000003   0.000000
    11  H   -0.013263   0.013680  -0.001279  -0.001341   0.000003  -0.000002
    12  H    0.000134  -0.001539   0.000633  -0.000141   0.000044   0.000019
    13  H    0.000242  -0.000576  -0.000106   0.000247  -0.000013   0.000050
    14  H    0.029526  -0.006978   0.004621  -0.015844   0.000826  -0.000177
    15  H    0.000493  -0.000253  -0.000172  -0.001354  -0.000257   0.000007
    16  H    0.000043  -0.000051   0.000061  -0.000425   0.000064  -0.000253
    17  H    0.000092  -0.000006  -0.000001  -0.000618  -0.000077  -0.000214
    18  H    0.000000  -0.000000   0.000001   0.000068  -0.000118  -0.000112
    19  H    0.000001   0.000002  -0.000002   0.000202  -0.000085  -0.000175
    20  H   -0.000000   0.000000   0.000000   0.000001  -0.000001  -0.000028
               7          8          9         10         11         12
     1  C    0.000000  -0.008441  -0.003489  -0.006907  -0.013263   0.000134
     2  C    0.000000   0.002084   0.003128   0.004341   0.013680  -0.001539
     3  C   -0.000001  -0.000296   0.000528  -0.000358  -0.001279   0.000633
     4  C    0.000020   0.000498   0.001351   0.002527  -0.001341  -0.000141
     5  C   -0.000024  -0.000006   0.000024  -0.000003   0.000003   0.000044
     6  C   -0.000143   0.000000  -0.000001   0.000000  -0.000002   0.000019
     7  C    0.000108  -0.000000  -0.000000  -0.000000   0.000000  -0.000001
     8  H   -0.000000  -0.051556   0.008022   0.001146  -0.001333   0.000022
     9  H   -0.000000   0.008022  -0.061338  -0.000051  -0.001182   0.000012
    10  H   -0.000000   0.001146  -0.000051   0.012509  -0.002284   0.000488
    11  H    0.000000  -0.001333  -0.001182  -0.002284   0.021000  -0.000562
    12  H   -0.000001   0.000022   0.000012   0.000488  -0.000562   0.003234
    13  H   -0.000003   0.000017  -0.000018   0.000067  -0.000634   0.000517
    14  H    0.000004  -0.000429  -0.002535  -0.002047   0.001126  -0.000666
    15  H    0.000000  -0.000007  -0.000023  -0.000367   0.000083  -0.000383
    16  H    0.000042  -0.000000  -0.000050  -0.000001   0.000009  -0.000011
    17  H    0.000027  -0.000000  -0.000013  -0.000001   0.000001  -0.000003
    18  H    0.000033  -0.000000  -0.000000  -0.000000   0.000000  -0.000002
    19  H    0.000040  -0.000000   0.000000  -0.000000   0.000001  -0.000025
    20  H   -0.000008  -0.000000  -0.000000  -0.000000   0.000000  -0.000000
              13         14         15         16         17         18
     1  C    0.000242   0.029526   0.000493   0.000043   0.000092   0.000000
     2  C   -0.000576  -0.006978  -0.000253  -0.000051  -0.000006  -0.000000
     3  C   -0.000106   0.004621  -0.000172   0.000061  -0.000001   0.000001
     4  C    0.000247  -0.015844  -0.001354  -0.000425  -0.000618   0.000068
     5  C   -0.000013   0.000826  -0.000257   0.000064  -0.000077  -0.000118
     6  C    0.000050  -0.000177   0.000007  -0.000253  -0.000214  -0.000112
     7  C   -0.000003   0.000004   0.000000   0.000042   0.000027   0.000033
     8  H    0.000017  -0.000429  -0.000007  -0.000000  -0.000000  -0.000000
     9  H   -0.000018  -0.002535  -0.000023  -0.000050  -0.000013  -0.000000
    10  H    0.000067  -0.002047  -0.000367  -0.000001  -0.000001  -0.000000
    11  H   -0.000634   0.001126   0.000083   0.000009   0.000001   0.000000
    12  H    0.000517  -0.000666  -0.000383  -0.000011  -0.000003  -0.000002
    13  H    0.000663  -0.000269  -0.000067  -0.000047  -0.000004  -0.000002
    14  H   -0.000269  -0.018311   0.002288   0.000337   0.000334   0.000017
    15  H   -0.000067   0.002288  -0.002745  -0.000002   0.000038   0.000002
    16  H   -0.000047   0.000337  -0.000002   0.000964   0.000091   0.000019
    17  H   -0.000004   0.000334   0.000038   0.000091   0.001347   0.000060
    18  H   -0.000002   0.000017   0.000002   0.000019   0.000060  -0.000013
    19  H   -0.000016   0.000033   0.000009   0.000021   0.000020   0.000068
    20  H   -0.000000   0.000000   0.000000   0.000014   0.000001   0.000004
              19         20
     1  C    0.000001  -0.000000
     2  C    0.000002   0.000000
     3  C   -0.000002   0.000000
     4  C    0.000202   0.000001
     5  C   -0.000085  -0.000001
     6  C   -0.000175  -0.000028
     7  C    0.000040  -0.000008
     8  H   -0.000000  -0.000000
     9  H    0.000000  -0.000000
    10  H   -0.000000  -0.000000
    11  H    0.000001   0.000000
    12  H   -0.000025  -0.000000
    13  H   -0.000016  -0.000000
    14  H    0.000033   0.000000
    15  H    0.000009   0.000000
    16  H    0.000021   0.000014
    17  H    0.000020   0.000001
    18  H    0.000068   0.000004
    19  H   -0.000228   0.000000
    20  H    0.000000   0.000018
 Mulliken charges and spin densities:
               1          2
     1  C   -0.180936   1.092751
     2  C   -0.255788  -0.048776
     3  C   -0.201678  -0.000279
     4  C   -0.152399   0.049712
     5  C   -0.183598  -0.004683
     6  C   -0.272028   0.001254
     7  C   -0.054877   0.000095
     8  H    0.110823  -0.050279
     9  H    0.088194  -0.055635
    10  H    0.079154   0.009060
    11  H    0.095714   0.014023
    12  H    0.125415   0.001773
    13  H    0.112759   0.000048
    14  H    0.129714  -0.008145
    15  H    0.101959  -0.002710
    16  H    0.086552   0.000823
    17  H    0.001973   0.001075
    18  H    0.167293   0.000026
    19  H    0.135845  -0.000135
    20  H    0.065910  -0.000000
 Sum of Mulliken charges =  -0.00000   1.00000
 Mulliken charges and spin densities with hydrogens summed into heavy atoms:
               1          2
     1  C    0.018080   0.986837
     2  C   -0.080920  -0.025693
     3  C    0.036496   0.001542
     4  C    0.079274   0.038858
     5  C   -0.095073  -0.002785
     6  C    0.031110   0.001146
     7  C    0.011033   0.000095
 Electronic spatial extent (au):  <R**2>=         757347.6114
 Charge=             -0.0000 electrons
 Dipole moment (field-independent basis, Debye):
    X=             -0.9541    Y=              0.4107    Z=             -2.2040  Tot=              2.4365
 Quadrupole moment (field-independent basis, Debye-Ang):
   XX=           -124.3174   YY=            -27.3841   ZZ=           -239.6543
   XY=             -2.4135   XZ=           -129.4599   YZ=            -33.1681
 Traceless Quadrupole moment (field-independent basis, Debye-Ang):
   XX=              6.1345   YY=            103.0679   ZZ=           -109.2024
   XY=             -2.4135   XZ=           -129.4599   YZ=            -33.1681
 Octapole moment (field-independent basis, Debye-Ang**2):
  XXX=         -10457.5266  YYY=          -2359.4233  ZZZ=         -18509.0641  XYY=          -1502.5441
  XXY=          -1887.6302  XXZ=          -8814.0592  XZZ=         -11427.0026  YZZ=          -4696.7194
  YYZ=          -2271.5367  XYZ=          -2149.4000
 Hexadecapole moment (field-independent basis, Debye-Ang**3):
 XXXX=        -724550.5515 YYYY=        -110814.9739 ZZZZ=       -1227640.2417 XXXY=        -191223.2307
 XXXZ=        -582427.4595 YYYX=        -104019.3054 YYYZ=        -123409.1110 ZZZX=        -824633.5850
 ZZZY=        -385378.0685 XXYY=         -98932.1733 XXZZ=        -613034.3221 YYZZ=        -168561.8247
 XXYZ=        -161770.8712 YYXZ=        -108776.5222 ZZXY=        -224930.5467
 N-N= 2.849956437047D+02 E-N=-1.200594069800D+03  KE= 2.695735580910D+02
                          Isotropic Fermi Contact Couplings
        Atom                 a.u.       MegaHertz       Gauss      10(-4) cm-1
     1  C(13)              0.25369     285.19421     101.76439      95.13055
     2  C(13)             -0.02696     -30.30396     -10.81321     -10.10831
     3  C(13)             -0.00166      -1.86925      -0.66700      -0.62352
     4  C(13)              0.01067      11.99465       4.27999       4.00099
     5  C(13)             -0.00218      -2.45242      -0.87508      -0.81804
     6  C(13)              0.00106       1.18652       0.42338       0.39578
     7  C(13)             -0.00009      -0.09940      -0.03547      -0.03316
     8  H(1)              -0.01426     -63.73609     -22.74262     -21.26007
     9  H(1)              -0.01444     -64.52727     -23.02494     -21.52398
    10  H(1)               0.00490      21.89743       7.81355       7.30420
    11  H(1)               0.01163      51.99284      18.55234      17.34294
    12  H(1)               0.00102       4.57985       1.63420       1.52767
    13  H(1)               0.00010       0.45416       0.16206       0.15149
    14  H(1)              -0.00413     -18.44013      -6.57990      -6.15096
    15  H(1)              -0.00080      -3.56378      -1.27164      -1.18875
    16  H(1)               0.00027       1.19773       0.42738       0.39952
    17  H(1)               0.00028       1.25138       0.44652       0.41742
    18  H(1)              -0.00002      -0.09982      -0.03562      -0.03330
    19  H(1)              -0.00004      -0.18885      -0.06739      -0.06299
    20  H(1)              -0.00000      -0.01078      -0.00385      -0.00360
 --------------------------------------------------------
       Center         ----  Spin Dipole Couplings  ----
                      3XX-RR        3YY-RR        3ZZ-RR
 --------------------------------------------------------
     1   Atom       -0.155476      0.625307     -0.469830
     2   Atom       -0.004865      0.005991     -0.001126
     3   Atom       -0.001819     -0.004005      0.005824
     4   Atom       -0.006649     -0.028815      0.035464
     5   Atom       -0.002898     -0.002594      0.005492
     6   Atom       -0.001575     -0.001852      0.003426
     7   Atom       -0.001251     -0.000358      0.001610
     8   Atom       -0.060733     -0.014526      0.075259
     9   Atom        0.007910      0.035344     -0.043254
    10   Atom        0.014223     -0.005574     -0.008649
    11   Atom        0.006420     -0.002802     -0.003619
    12   Atom        0.001285     -0.002749      0.001464
    13   Atom       -0.002455     -0.001759      0.004214
    14   Atom       -0.027984     -0.021670      0.049654
    15   Atom       -0.001585     -0.000400      0.001985
    16   Atom       -0.001752     -0.002480      0.004232
    17   Atom       -0.000798     -0.001671      0.002469
    18   Atom       -0.000952     -0.000764      0.001716
    19   Atom       -0.001058     -0.001296      0.002354
    20   Atom       -0.000410     -0.000419      0.000829
 --------------------------------------------------------
                        XY            XZ            YZ
 --------------------------------------------------------
     1   Atom       -0.585868      0.078424     -0.142455
     2   Atom       -0.031458     -0.027145      0.014301
     3   Atom       -0.003738     -0.002087     -0.001293
     4   Atom        0.002124     -0.037546     -0.006314
     5   Atom       -0.000085      0.001588     -0.000614
     6   Atom       -0.000014      0.000761     -0.000219
     7   Atom        0.000153      0.001246     -0.000410
     8   Atom       -0.038408      0.034250     -0.014951
     9   Atom        0.036213      0.030819      0.024069
    10   Atom        0.009333     -0.006623     -0.002752
    11   Atom       -0.008352     -0.010300     -0.001426
    12   Atom        0.000065     -0.004217     -0.000523
    13   Atom       -0.001303     -0.002683      0.002868
    14   Atom        0.004421     -0.016622     -0.026655
    15   Atom        0.005161     -0.003309     -0.003398
    16   Atom        0.000520      0.002438      0.001478
    17   Atom       -0.000766      0.002308     -0.001700
    18   Atom       -0.000109      0.000474     -0.000639
    19   Atom        0.000092     -0.000323     -0.000097
    20   Atom        0.000159      0.000481      0.000398
 --------------------------------------------------------


 ---------------------------------------------------------------------------------
              Anisotropic Spin Dipole Couplings in Principal Axis System
 ---------------------------------------------------------------------------------

       Atom             a.u.   MegaHertz   Gauss  10(-4) cm-1        Axes

              Baa    -0.4885   -65.557   -23.393   -21.868 -0.1388  0.0535  0.9889
     1 C(13)  Bbb    -0.4689   -62.925   -22.453   -20.989  0.8722  0.4795  0.0964
              Bcc     0.9575   128.482    45.846    42.857 -0.4691  0.8759 -0.1132
 
              Baa    -0.0369    -4.950    -1.766    -1.651  0.7915  0.4388  0.4253
     2 C(13)  Bbb    -0.0122    -1.641    -0.585    -0.547 -0.0392 -0.6580  0.7520
              Bcc     0.0491     6.591     2.352     2.198 -0.6099  0.6119  0.5037
 
              Baa    -0.0072    -0.968    -0.345    -0.323  0.6057  0.7764  0.1740
     3 C(13)  Bbb     0.0008     0.113     0.040     0.038  0.7616 -0.6291  0.1557
              Bcc     0.0064     0.855     0.305     0.285 -0.2303 -0.0382  0.9724
 
              Baa    -0.0304    -4.075    -1.454    -1.359  0.5030  0.7848  0.3621
     4 C(13)  Bbb    -0.0276    -3.701    -1.320    -1.234  0.7029 -0.6152  0.3570
              Bcc     0.0579     7.776     2.775     2.594 -0.5030 -0.0750  0.8611
 
              Baa    -0.0032    -0.428    -0.153    -0.143  0.9819 -0.0483 -0.1831
     5 C(13)  Bbb    -0.0026    -0.354    -0.126    -0.118  0.0608  0.9961  0.0633
              Bcc     0.0058     0.782     0.279     0.261  0.1793 -0.0733  0.9811
 
              Baa    -0.0019    -0.250    -0.089    -0.083 -0.0981  0.9936  0.0552
     6 C(13)  Bbb    -0.0017    -0.226    -0.081    -0.075  0.9843  0.1050 -0.1420
              Bcc     0.0035     0.476     0.170     0.159  0.1469 -0.0404  0.9883
 
              Baa    -0.0018    -0.238    -0.085    -0.080  0.9110 -0.2021 -0.3596
     7 C(13)  Bbb    -0.0003    -0.046    -0.016    -0.015  0.2361  0.9703  0.0529
              Bcc     0.0021     0.285     0.102     0.095  0.3382 -0.1331  0.9316
 
              Baa    -0.0858   -45.768   -16.331   -15.267  0.8833  0.4454 -0.1465
     8 H(1)   Bbb    -0.0033    -1.768    -0.631    -0.590 -0.3807  0.8637  0.3303
              Bcc     0.0891    47.536    16.962    15.856  0.2736 -0.2360  0.9324
 
              Baa    -0.0583   -31.108   -11.100   -10.376 -0.3794 -0.0899  0.9208
     9 H(1)   Bbb    -0.0142    -7.595    -2.710    -2.533  0.7265 -0.6453  0.2363
              Bcc     0.0725    38.703    13.810    12.910  0.5730  0.7586  0.3102
 
              Baa    -0.0105    -5.587    -1.993    -1.863  0.1927  0.1753  0.9655
    10 H(1)   Bbb    -0.0093    -4.946    -1.765    -1.650 -0.3893  0.9168 -0.0887
              Bcc     0.0197    10.533     3.758     3.513  0.9007  0.3587 -0.2449
 
              Baa    -0.0135    -7.210    -2.573    -2.405  0.5539  0.5186  0.6513
    11 H(1)   Bbb    -0.0017    -0.923    -0.329    -0.308  0.0070  0.7794 -0.6265
              Bcc     0.0152     8.133     2.902     2.713  0.8326 -0.3515 -0.4281
 
              Baa    -0.0031    -1.669    -0.596    -0.557  0.5111  0.6645  0.5451
    12 H(1)   Bbb    -0.0025    -1.326    -0.473    -0.442 -0.5024  0.7456 -0.4378
              Bcc     0.0056     2.995     1.069     0.999 -0.6974 -0.0501  0.7150
 
              Baa    -0.0035    -1.879    -0.670    -0.627  0.9022  0.3983  0.1653
    13 H(1)   Bbb    -0.0028    -1.521    -0.543    -0.507 -0.2895  0.8435 -0.4524
              Bcc     0.0064     3.400     1.213     1.134 -0.3196  0.3603  0.8764
 
              Baa    -0.0320   -17.069    -6.091    -5.694  0.8030  0.4987  0.3263
    14 H(1)   Bbb    -0.0298   -15.903    -5.675    -5.305 -0.5655  0.8103  0.1535
              Bcc     0.0618    32.972    11.765    10.998 -0.1878 -0.3078  0.9327
 
              Baa    -0.0062    -3.305    -1.179    -1.103  0.7563 -0.6533  0.0346
    15 H(1)   Bbb    -0.0018    -0.943    -0.336    -0.314  0.3859  0.4883  0.7827
              Bcc     0.0080     4.248     1.516     1.417 -0.5282 -0.5786  0.6214
 
              Baa    -0.0028    -1.489    -0.531    -0.497 -0.0339  0.9803 -0.1946
    16 H(1)   Bbb    -0.0026    -1.398    -0.499    -0.466  0.9438 -0.0326 -0.3289
              Bcc     0.0054     2.887     1.030     0.963  0.3287  0.1948  0.9241
 
              Baa    -0.0023    -1.221    -0.436    -0.407 -0.1440  0.9076  0.3943
    17 H(1)   Bbb    -0.0020    -1.046    -0.373    -0.349  0.8893  0.2935 -0.3507
              Bcc     0.0042     2.267     0.809     0.756  0.4340 -0.3001  0.8494
 
              Baa    -0.0010    -0.552    -0.197    -0.184  0.9849 -0.0127 -0.1728
    18 H(1)   Bbb    -0.0009    -0.490    -0.175    -0.163  0.0523  0.9726  0.2264
              Bcc     0.0020     1.042     0.372     0.347  0.1652 -0.2321  0.9586
 
              Baa    -0.0013    -0.708    -0.253    -0.236 -0.3279  0.9447 -0.0040
    19 H(1)   Bbb    -0.0011    -0.566    -0.202    -0.189  0.9400  0.3267  0.0983
              Bcc     0.0024     1.274     0.455     0.425 -0.0941 -0.0284  0.9952
 
              Baa    -0.0006    -0.312    -0.111    -0.104  0.8970 -0.3977 -0.1932
    20 H(1)   Bbb    -0.0005    -0.282    -0.101    -0.094  0.3098  0.8771 -0.3670
              Bcc     0.0011     0.594     0.212     0.198  0.3154  0.2693  0.9099
 

 ---------------------------------------------------------------------------------

 DoSCS=F DFT=T ScalE2(SS,OS)=  1.000000  1.000000
 Range of M.O.s used for correlation:     1   170
 NBasis=   170 NAE=    28 NBE=    27 NFC=     0 NFV=     0
 NROrb=    170 NOA=    28 NOB=    27 NVA=   142 NVB=   143
    12 initial guesses have been made.
 Convergence on wavefunction:    0.001000000000000
 Iteration     1 Dimension    12 NMult     0 NNew     12
 CISAX will form    12 AO SS matrices at one time.
 New state      1 was old state      2
 Iteration     2 Dimension    24 NMult    12 NNew     12
 Iteration     3 Dimension    27 NMult    24 NNew      3
 Iteration     4 Dimension    30 NMult    27 NNew      3
 ***********************************************************************
 Stability analysis using <AA,BB:AA,BB> singles matrix:
 ***********************************************************************
 Ground to excited state transition densities written to RWF  633

 Eigenvectors of the stability matrix:
 
 Excited state symmetry could not be determined.
 Eigenvector   1:  3.466-?Sym  Eigenvalue=-0.0271593  <S**2>=2.754
     26A -> 29A        0.12962
     28A -> 29A       -0.67713
     26B -> 28B       -0.13023
     27B -> 28B        0.67737
 The wavefunction has an internal instability.
 The two search directions are symmetric.
 Gradient too large for Newton-Raphson -- use scaled steepest descent instead.
     Accept linear search using points  3 and  4.
 LinEq1:  Iter=  0 NonCon=     1 RMS=1.35D-04 Max=6.82D-03 NDo=     1
 AX will form     1 AO Fock derivatives at one time.
 LinEq1:  Iter=  1 NonCon=     1 RMS=9.50D-05 Max=2.32D-03 NDo=     1
 LinEq1:  Iter=  2 NonCon=     1 RMS=4.72D-05 Max=1.26D-03 NDo=     1
 LinEq1:  Iter=  3 NonCon=     1 RMS=3.01D-05 Max=6.92D-04 NDo=     1
 LinEq1:  Iter=  4 NonCon=     1 RMS=1.10D-05 Max=1.51D-04 NDo=     1
 LinEq1:  Iter=  5 NonCon=     1 RMS=4.29D-06 Max=7.79D-05 NDo=     1
 LinEq1:  Iter=  6 NonCon=     1 RMS=2.40D-06 Max=3.41D-05 NDo=     1
 LinEq1:  Iter=  7 NonCon=     1 RMS=1.03D-06 Max=1.41D-05 NDo=     1
 LinEq1:  Iter=  8 NonCon=     1 RMS=4.85D-07 Max=6.55D-06 NDo=     1
 LinEq1:  Iter=  9 NonCon=     1 RMS=2.53D-07 Max=3.88D-06 NDo=     1
 LinEq1:  Iter= 10 NonCon=     1 RMS=8.51D-08 Max=3.38D-06 NDo=     1
 LinEq1:  Iter= 11 NonCon=     1 RMS=4.60D-08 Max=1.68D-06 NDo=     1
 LinEq1:  Iter= 12 NonCon=     1 RMS=1.88D-08 Max=3.88D-07 NDo=     1
 LinEq1:  Iter= 13 NonCon=     1 RMS=9.14D-09 Max=9.91D-08 NDo=     1
 LinEq1:  Iter= 14 NonCon=     0 RMS=3.12D-09 Max=5.58D-08 NDo=     1
 Linear equations converged to 8.853D-09 8.853D-08 after    14 iterations.
     Accept linear search using points  1 and  2.
 LinEq1:  Iter=  0 NonCon=     1 RMS=7.59D-06 Max=1.42D-04 NDo=     1
 LinEq1:  Iter=  1 NonCon=     1 RMS=5.78D-06 Max=1.31D-04 NDo=     1
 LinEq1:  Iter=  2 NonCon=     1 RMS=2.61D-06 Max=1.06D-04 NDo=     1
 LinEq1:  Iter=  3 NonCon=     1 RMS=2.02D-06 Max=6.21D-05 NDo=     1
 LinEq1:  Iter=  4 NonCon=     1 RMS=8.19D-07 Max=1.33D-05 NDo=     1
 LinEq1:  Iter=  5 NonCon=     1 RMS=3.99D-07 Max=6.22D-06 NDo=     1
 LinEq1:  Iter=  6 NonCon=     1 RMS=1.75D-07 Max=1.94D-06 NDo=     1
 LinEq1:  Iter=  7 NonCon=     1 RMS=8.38D-08 Max=1.44D-06 NDo=     1
 LinEq1:  Iter=  8 NonCon=     1 RMS=3.92D-08 Max=7.36D-07 NDo=     1
 LinEq1:  Iter=  9 NonCon=     1 RMS=2.00D-08 Max=8.03D-07 NDo=     1
 LinEq1:  Iter= 10 NonCon=     1 RMS=1.05D-08 Max=4.03D-07 NDo=     1
 LinEq1:  Iter= 11 NonCon=     1 RMS=4.49D-09 Max=9.79D-08 NDo=     1
 LinEq1:  Iter= 12 NonCon=     0 RMS=1.53D-09 Max=1.98D-08 NDo=     1
 Linear equations converged to 5.743D-09 5.743D-08 after    12 iterations.
     Minimum is close to point  2 DX=  7.16D-04 DF= -1.71D-13 DXR=  7.15D-04 DFR=  4.78D-07 which will be used.
 SCF Done:  E(UMN15) =  -273.699538527     a.u. after    4 cycles
            Convg  =    0.3636D-06                    43 Fock formations.
              S**2 =  1.2210                  -V/T =  2.0154
 <Sx>= 0.0000 <Sy>= 0.0000 <Sz>= 0.5000 <S**2>= 1.2210 S= 0.7128
 <L.S>=  0.00000000000    
 Annihilation of the first spin contaminant:
 S**2 before annihilation     1.2210,   after     0.7563
 DoSCS=F DFT=T ScalE2(SS,OS)=  1.000000  1.000000
 Range of M.O.s used for correlation:     1   170
 NBasis=   170 NAE=    28 NBE=    27 NFC=     0 NFV=     0
 NROrb=    170 NOA=    28 NOB=    27 NVA=   142 NVB=   143
    12 initial guesses have been made.
 Convergence on wavefunction:    0.001000000000000
 Iteration     1 Dimension    12 NMult     0 NNew     12
 CISAX will form    12 AO SS matrices at one time.
 New state      1 was old state      2
 Iteration     2 Dimension    24 NMult    12 NNew     12
 Iteration     3 Dimension    27 NMult    24 NNew      3
 Iteration     4 Dimension    30 NMult    27 NNew      3
 Iteration     5 Dimension    33 NMult    30 NNew      3
 Iteration     6 Dimension    36 NMult    33 NNew      3
 ***********************************************************************
 Stability analysis using <AA,BB:AA,BB> singles matrix:
 ***********************************************************************
 Ground to excited state transition densities written to RWF  633

 Eigenvectors of the stability matrix:
 
 Excited state symmetry could not be determined.
 Eigenvector   1:  2.873-?Sym  Eigenvalue= 0.0456201  <S**2>=1.813
     26A -> 29A        0.21313
     28A -> 29A       -0.62786
     26B -> 28B       -0.13775
     27B -> 28B        0.69386
 The wavefunction is stable under the perturbations considered.
 The wavefunction is already stable.

 **********************************************************************

            Population analysis using the SCF density.

 **********************************************************************

 Alpha  occ. eigenvalues --  -10.12704 -10.09746 -10.09679 -10.08875 -10.07498
 Alpha  occ. eigenvalues --  -10.06646 -10.06081  -0.87579  -0.82350  -0.75861
 Alpha  occ. eigenvalues --   -0.69572  -0.64476  -0.61675  -0.60438  -0.52237
 Alpha  occ. eigenvalues --   -0.49473  -0.47463  -0.45843  -0.43824  -0.43374
 Alpha  occ. eigenvalues --   -0.41061  -0.40013  -0.35912  -0.34956  -0.32694
 Alpha  occ. eigenvalues --   -0.27590  -0.26264  -0.24942
 Alpha virt. eigenvalues --   -0.04454   0.08852   0.10224   0.12063   0.13260
 Alpha virt. eigenvalues --    0.13705   0.14750   0.17457   0.18050   0.19004
 Alpha virt. eigenvalues --    0.20516   0.22084   0.23186   0.24727   0.25096
 Alpha virt. eigenvalues --    0.26221   0.29802   0.30589   0.33341   0.34189
 Alpha virt. eigenvalues --    0.48702   0.53191   0.54339   0.56200   0.57513
 Alpha virt. eigenvalues --    0.58568   0.60076   0.60750   0.61931   0.63719
 Alpha virt. eigenvalues --    0.65626   0.66662   0.68350   0.72481   0.73352
 Alpha virt. eigenvalues --    0.73694   0.75708   0.78034   0.79801   0.81905
 Alpha virt. eigenvalues --    0.83535   0.84302   0.85646   0.87627   0.88026
 Alpha virt. eigenvalues --    0.90870   0.92005   0.93552   0.96872   0.98104
 Alpha virt. eigenvalues --    0.98339   0.99871   1.01618   1.04811   1.07966
 Alpha virt. eigenvalues --    1.09786   1.15576   1.21063   1.30247   1.33304
 Alpha virt. eigenvalues --    1.39014   1.43402   1.46900   1.52488   1.54869
 Alpha virt. eigenvalues --    1.57485   1.61097   1.62207   1.64265   1.68599
 Alpha virt. eigenvalues --    1.70349   1.72222   1.74203   1.75515   1.77905
 Alpha virt. eigenvalues --    1.79181   1.80562   1.83478   1.87767   1.89075
 Alpha virt. eigenvalues --    1.91568   1.93820   1.96355   1.98870   2.01337
 Alpha virt. eigenvalues --    2.06499   2.08803   2.12990   2.14573   2.17133
 Alpha virt. eigenvalues --    2.20529   2.22956   2.24763   2.27057   2.27214
 Alpha virt. eigenvalues --    2.29205   2.31272   2.32960   2.34415   2.36862
 Alpha virt. eigenvalues --    2.39108   2.41244   2.42953   2.43996   2.46066
 Alpha virt. eigenvalues --    2.50958   2.52529   2.53421   2.55378   2.58177
 Alpha virt. eigenvalues --    2.59427   2.63737   2.65475   2.66804   2.69775
 Alpha virt. eigenvalues --    2.70535   2.79250   2.84308   2.85728   2.86854
 Alpha virt. eigenvalues --    2.89483   2.96357   2.96443   3.01678   3.05597
 Alpha virt. eigenvalues --    3.18532   3.22693   3.25678   3.33107   3.33647
 Alpha virt. eigenvalues --    3.40784   3.43400   3.55972   3.74053   3.76661
 Alpha virt. eigenvalues --    3.99368   4.15552   4.22048   4.33562   4.46685
 Alpha virt. eigenvalues --    4.56548   4.62889
  Beta  occ. eigenvalues --  -10.12700 -10.09763 -10.09680 -10.08131 -10.07446
  Beta  occ. eigenvalues --  -10.06643 -10.06081  -0.87368  -0.82201  -0.73592
  Beta  occ. eigenvalues --   -0.68877  -0.64313  -0.60683  -0.60320  -0.51984
  Beta  occ. eigenvalues --   -0.48985  -0.47228  -0.44692  -0.43580  -0.43038
  Beta  occ. eigenvalues --   -0.40797  -0.39456  -0.35233  -0.34784  -0.33042
  Beta  occ. eigenvalues --   -0.27039  -0.24995
  Beta virt. eigenvalues --   -0.04366  -0.02639   0.08850   0.10302   0.11979
  Beta virt. eigenvalues --    0.13325   0.13749   0.14681   0.17438   0.17968
  Beta virt. eigenvalues --    0.18937   0.20964   0.22617   0.23305   0.25028
  Beta virt. eigenvalues --    0.25206   0.26205   0.30061   0.30869   0.33535
  Beta virt. eigenvalues --    0.34209   0.49133   0.53749   0.54384   0.55379
  Beta virt. eigenvalues --    0.57892   0.58979   0.59996   0.62332   0.62839
  Beta virt. eigenvalues --    0.64825   0.65920   0.69232   0.69983   0.72382
  Beta virt. eigenvalues --    0.72932   0.74449   0.75888   0.77866   0.79686
  Beta virt. eigenvalues --    0.81809   0.83155   0.83635   0.84809   0.87741
  Beta virt. eigenvalues --    0.88059   0.90422   0.91680   0.93738   0.96773
  Beta virt. eigenvalues --    0.98001   0.98591   1.00501   1.00975   1.04989
  Beta virt. eigenvalues --    1.07370   1.09905   1.15601   1.21174   1.30407
  Beta virt. eigenvalues --    1.33375   1.39044   1.43387   1.47959   1.53165
  Beta virt. eigenvalues --    1.54637   1.57522   1.61092   1.62186   1.64490
  Beta virt. eigenvalues --    1.68615   1.71006   1.72222   1.73544   1.74653
  Beta virt. eigenvalues --    1.77313   1.78647   1.83003   1.83943   1.87684
  Beta virt. eigenvalues --    1.88973   1.92098   1.95841   1.96556   1.98771
  Beta virt. eigenvalues --    2.01447   2.06354   2.08243   2.12808   2.13774
  Beta virt. eigenvalues --    2.16753   2.20249   2.22921   2.24461   2.26639
  Beta virt. eigenvalues --    2.26886   2.28812   2.30086   2.31817   2.34250
  Beta virt. eigenvalues --    2.36981   2.38806   2.41103   2.43538   2.44306
  Beta virt. eigenvalues --    2.46321   2.50836   2.52437   2.53290   2.55216
  Beta virt. eigenvalues --    2.58319   2.59395   2.63440   2.65033   2.66480
  Beta virt. eigenvalues --    2.69663   2.71102   2.78737   2.83291   2.84262
  Beta virt. eigenvalues --    2.85689   2.89459   2.96131   2.96188   2.99388
  Beta virt. eigenvalues --    3.05967   3.11933   3.19229   3.25385   3.32462
  Beta virt. eigenvalues --    3.33229   3.40635   3.43000   3.55814   3.62112
  Beta virt. eigenvalues --    3.77303   3.99350   4.17629   4.22723   4.34886
  Beta virt. eigenvalues --    4.46808   4.56465   4.62961
          Condensed to atoms (all electrons):
               1          2          3          4          5          6
     1  C    5.200089   0.367993  -0.013263  -0.055634   0.001031  -0.000018
     2  C    0.367993   5.161932   0.340498  -0.129538   0.009100   0.000253
     3  C   -0.013263   0.340498   5.017454   0.338915  -0.071762  -0.004168
     4  C   -0.055634  -0.129538   0.338915   4.995969   0.329101  -0.016275
     5  C    0.001031   0.009100  -0.071762   0.329101   5.155429   0.294784
     6  C   -0.000018   0.000253  -0.004168  -0.016275   0.294784   4.981933
     7  C    0.000000   0.000007  -0.000104   0.001732  -0.030340   0.388794
     8  H    0.387533  -0.025461   0.001696   0.002131   0.000007  -0.000000
     9  H    0.362883  -0.037978  -0.001508  -0.000362   0.000342  -0.000000
    10  H   -0.045299   0.354146  -0.031053  -0.000087   0.000663  -0.000015
    11  H   -0.048348   0.353188  -0.044420   0.012586  -0.000804   0.000019
    12  H    0.002469  -0.029981   0.390823  -0.027337   0.002068   0.000203
    13  H   -0.001393  -0.024442   0.396811  -0.032143  -0.004456  -0.000956
    14  H    0.021108  -0.090616  -0.090516   0.444165  -0.032593   0.002611
    15  H    0.001423   0.007106  -0.039098   0.345873   0.000484  -0.001806
    16  H    0.000543   0.000608  -0.005018  -0.024250   0.358697  -0.069757
    17  H   -0.000073  -0.000333   0.005056  -0.026036   0.317025  -0.038025
    18  H    0.000002  -0.000038  -0.000288   0.002101  -0.060172   0.396243
    19  H   -0.000006  -0.000140   0.009645  -0.010342  -0.081604   0.363883
    20  H    0.000000   0.000000  -0.000007   0.000060  -0.006114  -0.039183
               7          8          9         10         11         12
     1  C    0.000000   0.387533   0.362883  -0.045299  -0.048348   0.002469
     2  C    0.000007  -0.025461  -0.037978   0.354146   0.353188  -0.029981
     3  C   -0.000104   0.001696  -0.001508  -0.031053  -0.044420   0.390823
     4  C    0.001732   0.002131  -0.000362  -0.000087   0.012586  -0.027337
     5  C   -0.030340   0.000007   0.000342   0.000663  -0.000804   0.002068
     6  C    0.388794  -0.000000  -0.000000  -0.000015   0.000019   0.000203
     7  C    5.451024  -0.000000  -0.000000  -0.000000  -0.000000  -0.000008
     8  H   -0.000000   0.565366  -0.037627  -0.003311   0.000480  -0.000052
     9  H   -0.000000  -0.037627   0.621006   0.004077   0.000416  -0.000032
    10  H   -0.000000  -0.003311   0.004077   0.660672  -0.012360  -0.006073
    11  H   -0.000000   0.000480   0.000416  -0.012360   0.639439  -0.000561
    12  H   -0.000008  -0.000052  -0.000032  -0.006073  -0.000561   0.593159
    13  H   -0.000033  -0.000076   0.001333   0.003194  -0.004262  -0.037492
    14  H   -0.000050  -0.001073  -0.001295  -0.005206   0.010182   0.007655
    15  H   -0.000002  -0.000171   0.000123   0.001844  -0.001014  -0.019419
    16  H   -0.004258  -0.000004   0.000592  -0.000002  -0.000124   0.000085
    17  H    0.000977  -0.000002   0.000038   0.000013   0.000011  -0.000138
    18  H   -0.020896   0.000000   0.000000   0.000001  -0.000000   0.000018
    19  H   -0.013409  -0.000000   0.000001   0.000004   0.000012  -0.000398
    20  H    0.281748   0.000000   0.000000   0.000000  -0.000000   0.000000
              13         14         15         16         17         18
     1  C   -0.001393   0.021108   0.001423   0.000543  -0.000073   0.000002
     2  C   -0.024442  -0.090616   0.007106   0.000608  -0.000333  -0.000038
     3  C    0.396811  -0.090516  -0.039098  -0.005018   0.005056  -0.000288
     4  C   -0.032143   0.444165   0.345873  -0.024250  -0.026036   0.002101
     5  C   -0.004456  -0.032593   0.000484   0.358697   0.317025  -0.060172
     6  C   -0.000956   0.002611  -0.001806  -0.069757  -0.038025   0.396243
     7  C   -0.000033  -0.000050  -0.000002  -0.004258   0.000977  -0.020896
     8  H   -0.000076  -0.001073  -0.000171  -0.000004  -0.000002   0.000000
     9  H    0.001333  -0.001295   0.000123   0.000592   0.000038   0.000000
    10  H    0.003194  -0.005206   0.001844  -0.000002   0.000013   0.000001
    11  H   -0.004262   0.010182  -0.001014  -0.000124   0.000011  -0.000000
    12  H   -0.037492   0.007655  -0.019419   0.000085  -0.000138   0.000018
    13  H    0.580851  -0.000226   0.005695   0.003041   0.000222   0.000095
    14  H   -0.000226   0.653526  -0.041060  -0.006145   0.000181  -0.000195
    15  H    0.005695  -0.041060   0.635954   0.002308  -0.001334   0.000573
    16  H    0.003041  -0.006145   0.002308   0.657380  -0.021423   0.009170
    17  H    0.000222   0.000181  -0.001334  -0.021423   0.769804  -0.015628
    18  H    0.000095  -0.000195   0.000573   0.009170  -0.015628   0.557531
    19  H    0.001199   0.000215   0.000652   0.005139   0.007905  -0.029568
    20  H    0.000012  -0.000001   0.000001   0.006319   0.000117   0.002201
              19         20
     1  C   -0.000006   0.000000
     2  C   -0.000140   0.000000
     3  C    0.009645  -0.000007
     4  C   -0.010342   0.000060
     5  C   -0.081604  -0.006114
     6  C    0.363883  -0.039183
     7  C   -0.013409   0.281748
     8  H   -0.000000   0.000000
     9  H    0.000001   0.000000
    10  H    0.000004   0.000000
    11  H    0.000012  -0.000000
    12  H   -0.000398   0.000000
    13  H    0.001199   0.000012
    14  H    0.000215  -0.000001
    15  H    0.000652   0.000001
    16  H    0.005139   0.006319
    17  H    0.007905   0.000117
    18  H   -0.029568   0.002201
    19  H    0.622059   0.002038
    20  H    0.002038   0.683004
          Atomic-Atomic Spin Densities.
               1          2          3          4          5          6
     1  C    1.159260  -0.040113   0.000263  -0.024341   0.000196  -0.000001
     2  C   -0.040113  -0.039656   0.005215   0.010137   0.000285  -0.000029
     3  C    0.000263   0.005215  -0.003309  -0.005036   0.000552  -0.000189
     4  C   -0.024341   0.010137  -0.005036   0.091398  -0.002498  -0.000068
     5  C    0.000196   0.000285   0.000552  -0.002498  -0.003860   0.001040
     6  C   -0.000001  -0.000029  -0.000189  -0.000068   0.001040   0.006585
     7  C    0.000000  -0.000001  -0.000076   0.000183  -0.000400  -0.002760
     8  H   -0.008428   0.002088  -0.000294   0.000494  -0.000006   0.000000
     9  H   -0.003476   0.003141   0.000526   0.001347   0.000025  -0.000000
    10  H   -0.006889   0.004384  -0.000343   0.002483  -0.000004   0.000001
    11  H   -0.013385   0.013844  -0.001449  -0.001346   0.000008  -0.000002
    12  H    0.000135  -0.001316   0.000644  -0.000244  -0.000059   0.000040
    13  H    0.000253  -0.000436  -0.000052   0.000287  -0.000277   0.000085
    14  H    0.028936  -0.006678   0.003989  -0.016621   0.001138  -0.000252
    15  H    0.000512  -0.000339  -0.000033  -0.001204  -0.000427   0.000047
    16  H    0.000078  -0.000089   0.000053   0.000966  -0.005463   0.000851
    17  H    0.000091  -0.000024  -0.000031  -0.002083   0.007018  -0.002308
    18  H    0.000001   0.000002  -0.000006   0.001721  -0.020170   0.011615
    19  H    0.000000  -0.000041  -0.000054  -0.002627   0.023073  -0.012338
    20  H    0.000000  -0.000000  -0.000004   0.000008  -0.000199  -0.000060
               7          8          9         10         11         12
     1  C    0.000000  -0.008428  -0.003476  -0.006889  -0.013385   0.000135
     2  C   -0.000001   0.002088   0.003141   0.004384   0.013844  -0.001316
     3  C   -0.000076  -0.000294   0.000526  -0.000343  -0.001449   0.000644
     4  C    0.000183   0.000494   0.001347   0.002483  -0.001346  -0.000244
     5  C   -0.000400  -0.000006   0.000025  -0.000004   0.000008  -0.000059
     6  C   -0.002760   0.000000  -0.000000   0.000001  -0.000002   0.000040
     7  C    0.008632  -0.000000  -0.000000   0.000000  -0.000000  -0.000000
     8  H   -0.000000  -0.051588   0.008027   0.001147  -0.001341   0.000022
     9  H   -0.000000   0.008027  -0.061420  -0.000051  -0.001186   0.000012
    10  H    0.000000   0.001147  -0.000051   0.012593  -0.002309   0.000489
    11  H   -0.000000  -0.001341  -0.001186  -0.002309   0.021375  -0.000595
    12  H   -0.000000   0.000022   0.000012   0.000489  -0.000595   0.003065
    13  H    0.000031   0.000017  -0.000019   0.000066  -0.000693   0.000498
    14  H   -0.000008  -0.000433  -0.002535  -0.002087   0.001192  -0.000687
    15  H    0.000003  -0.000007  -0.000023  -0.000361   0.000080  -0.000349
    16  H    0.001779  -0.000000  -0.000049  -0.000001   0.000003  -0.000004
    17  H   -0.000994  -0.000000  -0.000013  -0.000001   0.000001  -0.000001
    18  H   -0.005535  -0.000000  -0.000000  -0.000000  -0.000000  -0.000003
    19  H    0.006525  -0.000000   0.000000  -0.000000   0.000003   0.000043
    20  H   -0.000475  -0.000000   0.000000   0.000000  -0.000000   0.000000
              13         14         15         16         17         18
     1  C    0.000253   0.028936   0.000512   0.000078   0.000091   0.000001
     2  C   -0.000436  -0.006678  -0.000339  -0.000089  -0.000024   0.000002
     3  C   -0.000052   0.003989  -0.000033   0.000053  -0.000031  -0.000006
     4  C    0.000287  -0.016621  -0.001204   0.000966  -0.002083   0.001721
     5  C   -0.000277   0.001138  -0.000427  -0.005463   0.007018  -0.020170
     6  C    0.000085  -0.000252   0.000047   0.000851  -0.002308   0.011615
     7  C    0.000031  -0.000008   0.000003   0.001779  -0.000994  -0.005535
     8  H    0.000017  -0.000433  -0.000007  -0.000000  -0.000000  -0.000000
     9  H   -0.000019  -0.002535  -0.000023  -0.000049  -0.000013  -0.000000
    10  H    0.000066  -0.002087  -0.000361  -0.000001  -0.000001  -0.000000
    11  H   -0.000693   0.001192   0.000080   0.000003   0.000001  -0.000000
    12  H    0.000498  -0.000687  -0.000349  -0.000004  -0.000001  -0.000003
    13  H    0.000433  -0.000327  -0.000057   0.000022  -0.000001   0.000004
    14  H   -0.000327  -0.015507   0.002098  -0.000015   0.000433  -0.000044
    15  H   -0.000057   0.002098  -0.002893   0.000018   0.000026   0.000042
    16  H    0.000022  -0.000015   0.000018   0.003831  -0.000519   0.001138
    17  H   -0.000001   0.000433   0.000026  -0.000519  -0.006060   0.001198
    18  H    0.000004  -0.000044   0.000042   0.001138   0.001198   0.017815
    19  H   -0.000003   0.000115  -0.000079  -0.000987  -0.000726   0.002153
    20  H    0.000006  -0.000001   0.000000   0.000588  -0.000105   0.001324
              19         20
     1  C    0.000000   0.000000
     2  C   -0.000041  -0.000000
     3  C   -0.000054  -0.000004
     4  C   -0.002627   0.000008
     5  C    0.023073  -0.000199
     6  C   -0.012338  -0.000060
     7  C    0.006525  -0.000475
     8  H   -0.000000  -0.000000
     9  H    0.000000   0.000000
    10  H   -0.000000   0.000000
    11  H    0.000003  -0.000000
    12  H    0.000043   0.000000
    13  H   -0.000003   0.000006
    14  H    0.000115  -0.000001
    15  H   -0.000079   0.000000
    16  H   -0.000987   0.000588
    17  H   -0.000726  -0.000105
    18  H    0.002153   0.001324
    19  H   -0.038218  -0.001032
    20  H   -0.001032   0.000255
 Mulliken charges and spin densities:
               1          2
     1  C   -0.181042   1.093093
     2  C   -0.256304  -0.049627
     3  C   -0.199695   0.000367
     4  C   -0.150633   0.052957
     5  C   -0.180886  -0.000029
     6  C   -0.258521   0.002258
     7  C   -0.055181   0.006903
     8  H    0.110564  -0.050301
     9  H    0.087992  -0.055695
    10  H    0.078793   0.009117
    11  H    0.095562   0.014199
    12  H    0.125012   0.001693
    13  H    0.113026  -0.000164
    14  H    0.129332  -0.007292
    15  H    0.101871  -0.002947
    16  H    0.087099   0.002199
    17  H    0.001641  -0.004099
    18  H    0.158849   0.011254
    19  H    0.122714  -0.024192
    20  H    0.069805   0.000306
 Sum of Mulliken charges =   0.00000   1.00000
 Mulliken charges and spin densities with hydrogens summed into heavy atoms:
               1          2
     1  C    0.017513   0.987098
     2  C   -0.081949  -0.026311
     3  C    0.038344   0.001896
     4  C    0.080571   0.042718
     5  C   -0.092146  -0.001930
     6  C    0.023043  -0.010680
     7  C    0.014624   0.007210
 Electronic spatial extent (au):  <R**2>=         757322.7865
 Charge=              0.0000 electrons
 Dipole moment (field-independent basis, Debye):
    X=             -0.9277    Y=              0.4986    Z=             -1.8965  Tot=              2.1693
 Quadrupole moment (field-independent basis, Debye-Ang):
   XX=           -122.4021   YY=            -23.7169   ZZ=           -211.8464
   XY=              1.9822   XZ=           -115.5955   YZ=            -22.4512
 Traceless Quadrupole moment (field-independent basis, Debye-Ang):
   XX=             -3.0803   YY=             95.6049   ZZ=            -92.5246
   XY=              1.9822   XZ=           -115.5955   YZ=            -22.4512
 Octapole moment (field-independent basis, Debye-Ang**2):
  XXX=         -10355.5620  YYY=          -2244.8646  ZZZ=         -16622.5554  XYY=          -1329.9822
  XXY=          -1679.8789  XXZ=          -8205.1979  XZZ=         -10226.7915  YZZ=          -3907.0993
  YYZ=          -1957.6402  XYZ=          -1672.9609
 Hexadecapole moment (field-independent basis, Debye-Ang**3):
 XXXX=        -719871.6177 YYYY=        -107640.4924 ZZZZ=       -1113847.1074 XXXY=        -181790.6991
 XXXZ=        -556283.9892 YYYX=         -98725.5957 YYYZ=        -114972.2566 ZZZX=        -744399.5100
 ZZZY=        -335860.9046 XXYY=         -91043.9853 XXZZ=        -561853.4110 YYZZ=        -147664.9947
 XXYZ=        -140938.5566 YYXZ=         -94879.1722 ZZXY=        -190814.6583
 N-N= 2.849956437047D+02 E-N=-1.200642091401D+03  KE= 2.695570994271D+02
                          Isotropic Fermi Contact Couplings
        Atom                 a.u.       MegaHertz       Gauss      10(-4) cm-1
     1  C(13)              0.25388     285.40520     101.83967      95.20093
     2  C(13)             -0.02774     -31.18097     -11.12615     -10.40085
     3  C(13)             -0.00167      -1.87813      -0.67016      -0.62648
     4  C(13)              0.01307      14.68875       5.24131       4.89964
     5  C(13)             -0.00201      -2.26337      -0.80763      -0.75498
     6  C(13)              0.00980      11.01639       3.93092       3.67467
     7  C(13)              0.00471       5.29607       1.88977       1.76658
     8  H(1)              -0.01426     -63.73646     -22.74275     -21.26019
     9  H(1)              -0.01445     -64.59130     -23.04778     -21.54534
    10  H(1)               0.00493      22.02483       7.85901       7.34669
    11  H(1)               0.01171      52.33852      18.67568      17.45825
    12  H(1)               0.00097       4.32279       1.54248       1.44193
    13  H(1)               0.00008       0.34817       0.12423       0.11614
    14  H(1)              -0.00374     -16.69888      -5.95857      -5.57015
    15  H(1)              -0.00088      -3.92505      -1.40055      -1.30925
    16  H(1)               0.00012       0.52688       0.18800       0.17575
    17  H(1)              -0.00092      -4.12807      -1.47300      -1.37698
    18  H(1)               0.00822      36.72185      13.10327      12.24909
    19  H(1)              -0.01217     -54.40177     -19.41190     -18.14648
    20  H(1)               0.00015       0.67380       0.24043       0.22475
 --------------------------------------------------------
       Center         ----  Spin Dipole Couplings  ----
                      3XX-RR        3YY-RR        3ZZ-RR
 --------------------------------------------------------
     1   Atom       -0.155310      0.625194     -0.469884
     2   Atom       -0.004496      0.006380     -0.001884
     3   Atom       -0.001525     -0.003858      0.005383
     4   Atom       -0.007053     -0.031246      0.038299
     5   Atom       -0.005314     -0.003988      0.009302
     6   Atom        0.011326     -0.024970      0.013644
     7   Atom       -0.421444      0.154198      0.267246
     8   Atom       -0.060739     -0.014538      0.075277
     9   Atom        0.007894      0.035385     -0.043279
    10   Atom        0.014315     -0.005611     -0.008703
    11   Atom        0.006507     -0.002780     -0.003727
    12   Atom        0.001455     -0.002664      0.001209
    13   Atom       -0.002130     -0.001547      0.003677
    14   Atom       -0.027976     -0.021896      0.049872
    15   Atom       -0.001322     -0.000420      0.001742
    16   Atom       -0.002486     -0.002052      0.004538
    17   Atom       -0.000973     -0.001948      0.002921
    18   Atom       -0.001884      0.002146     -0.000262
    19   Atom        0.000302     -0.004105      0.003803
    20   Atom       -0.006906     -0.000433      0.007339
 --------------------------------------------------------
                        XY            XZ            YZ
 --------------------------------------------------------
     1   Atom       -0.585899      0.078357     -0.142540
     2   Atom       -0.031546     -0.027327      0.014401
     3   Atom       -0.003877     -0.001912     -0.001285
     4   Atom        0.002300     -0.034083     -0.006326
     5   Atom       -0.000305      0.004509     -0.000746
     6   Atom        0.006745      0.021214     -0.019437
     7   Atom        0.073192      0.672283     -0.594997
     8   Atom       -0.038413      0.034288     -0.014979
     9   Atom        0.036237      0.030877      0.024039
    10   Atom        0.009309     -0.006586     -0.002828
    11   Atom       -0.008344     -0.010306     -0.001428
    12   Atom       -0.000019     -0.004407     -0.000604
    13   Atom       -0.001400     -0.002727      0.002904
    14   Atom        0.004549     -0.016693     -0.026760
    15   Atom        0.005448     -0.003123     -0.003539
    16   Atom        0.000598      0.002759      0.001389
    17   Atom       -0.001010      0.002195     -0.001461
    18   Atom        0.003466      0.002438      0.003554
    19   Atom       -0.002953     -0.001426     -0.002750
    20   Atom        0.002937      0.017222     -0.013846
 --------------------------------------------------------


 ---------------------------------------------------------------------------------
              Anisotropic Spin Dipole Couplings in Principal Axis System
 ---------------------------------------------------------------------------------

       Atom             a.u.   MegaHertz   Gauss  10(-4) cm-1        Axes

              Baa    -0.4886   -65.563   -23.394   -21.869 -0.1332  0.0565  0.9895
     1 C(13)  Bbb    -0.4689   -62.917   -22.450   -20.987  0.8730  0.4793  0.0902
              Bcc     0.9574   128.480    45.845    42.856 -0.4691  0.8758 -0.1132
 
              Baa    -0.0369    -4.948    -1.766    -1.651  0.7891  0.4291  0.4396
     2 C(13)  Bbb    -0.0126    -1.687    -0.602    -0.563 -0.0565 -0.6619  0.7474
              Bcc     0.0494     6.635     2.368     2.213 -0.6117  0.6146  0.4981
 
              Baa    -0.0071    -0.955    -0.341    -0.319  0.6002  0.7812  0.1721
     3 C(13)  Bbb     0.0012     0.165     0.059     0.055  0.7655 -0.6233  0.1597
              Bcc     0.0059     0.790     0.282     0.263 -0.2320 -0.0359  0.9720
 
              Baa    -0.0319    -4.279    -1.527    -1.427  0.0919  0.9868  0.1336
     4 C(13)  Bbb    -0.0252    -3.378    -1.205    -1.127  0.8778 -0.1436  0.4570
              Bcc     0.0571     7.657     2.732     2.554 -0.4702 -0.0752  0.8794
 
              Baa    -0.0066    -0.885    -0.316    -0.295  0.9619  0.0349 -0.2712
     5 C(13)  Bbb    -0.0040    -0.541    -0.193    -0.180 -0.0187  0.9979  0.0622
              Bcc     0.0106     1.426     0.509     0.476  0.2728 -0.0547  0.9605
 
              Baa    -0.0377    -5.064    -1.807    -1.689 -0.3081  0.8407  0.4453
     6 C(13)  Bbb     0.0023     0.310     0.110     0.103  0.7197  0.5121 -0.4688
              Bcc     0.0354     4.754     1.696     1.586  0.6221 -0.1760  0.7629
 
              Baa    -0.9724  -130.485   -46.560   -43.525  0.7429 -0.3497 -0.5708
     7 C(13)  Bbb    -0.0023    -0.305    -0.109    -0.102  0.5736  0.7721  0.2736
              Bcc     0.9747   130.790    46.669    43.627  0.3450 -0.5307  0.7742
 
              Baa    -0.0858   -45.777   -16.334   -15.270  0.8833  0.4453 -0.1466
     8 H(1)   Bbb    -0.0033    -1.784    -0.637    -0.595 -0.3806  0.8637  0.3305
              Bcc     0.0891    47.562    16.971    15.865  0.2738 -0.2362  0.9323
 
              Baa    -0.0584   -31.139   -11.111   -10.387 -0.3803 -0.0891  0.9206
     9 H(1)   Bbb    -0.0142    -7.587    -2.707    -2.531  0.7260 -0.6454  0.2375
              Bcc     0.0726    38.726    13.818    12.918  0.5730  0.7586  0.3101
 
              Baa    -0.0105    -5.623    -2.006    -1.876  0.1638  0.2398  0.9569
    10 H(1)   Bbb    -0.0092    -4.935    -1.761    -1.646 -0.4006  0.9026 -0.1576
              Bcc     0.0198    10.558     3.767     3.522  0.9015  0.3575 -0.2439
 
              Baa    -0.0135    -7.218    -2.575    -2.408  0.5519  0.5156  0.6555
    11 H(1)   Bbb    -0.0018    -0.938    -0.335    -0.313  0.0110  0.7814 -0.6239
              Bcc     0.0153     8.155     2.910     2.720  0.8338 -0.3515 -0.4256
 
              Baa    -0.0034    -1.797    -0.641    -0.599  0.5664  0.5457  0.6176
    12 H(1)   Bbb    -0.0024    -1.277    -0.456    -0.426 -0.4109  0.8366 -0.3624
              Bcc     0.0058     3.073     1.097     1.025  0.7144  0.0485 -0.6981
 
              Baa    -0.0033    -1.771    -0.632    -0.591  0.8905  0.4212  0.1722
    13 H(1)   Bbb    -0.0028    -1.488    -0.531    -0.496 -0.2927  0.8200 -0.4918
              Bcc     0.0061     3.259     1.163     1.087 -0.3484  0.3875  0.8535
 
              Baa    -0.0320   -17.069    -6.091    -5.694  0.7825  0.5269  0.3318
    14 H(1)   Bbb    -0.0301   -16.047    -5.726    -5.353 -0.5934  0.7924  0.1413
              Bcc     0.0621    33.116    11.817    11.046 -0.1884 -0.3075  0.9327
 
              Baa    -0.0063    -3.383    -1.207    -1.128  0.7308 -0.6824 -0.0164
    15 H(1)   Bbb    -0.0018    -0.939    -0.335    -0.313  0.4165  0.4267  0.8028
              Bcc     0.0081     4.321     1.542     1.441 -0.5408 -0.5935  0.5961
 
              Baa    -0.0035    -1.841    -0.657    -0.614  0.9458 -0.0970 -0.3098
    16 H(1)   Bbb    -0.0023    -1.244    -0.444    -0.415  0.0314  0.9772 -0.2101
              Bcc     0.0058     3.085     1.101     1.029  0.3231  0.1890  0.9273
 
              Baa    -0.0026    -1.379    -0.492    -0.460  0.5020  0.8644  0.0292
    17 H(1)   Bbb    -0.0018    -0.964    -0.344    -0.322  0.7628 -0.4266 -0.4860
              Bcc     0.0044     2.343     0.836     0.781  0.4076 -0.2662  0.8735
 
              Baa    -0.0040    -2.113    -0.754    -0.705  0.8977 -0.3750 -0.2313
    18 H(1)   Bbb    -0.0028    -1.499    -0.535    -0.500 -0.0267 -0.5702  0.8210
              Bcc     0.0068     3.612     1.289     1.205  0.4398  0.7309  0.5219
 
              Baa    -0.0065    -3.476    -1.240    -1.160  0.4307  0.8555  0.2875
    19 H(1)   Bbb     0.0018     0.951     0.339     0.317  0.8914 -0.4530  0.0126
              Bcc     0.0047     2.525     0.901     0.842 -0.1410 -0.2508  0.9577
 
              Baa    -0.0234   -12.483    -4.454    -4.164  0.6854 -0.4383 -0.5815
    20 H(1)   Bbb    -0.0000    -0.010    -0.004    -0.003  0.5963  0.7962  0.1027
              Bcc     0.0234    12.493     4.458     4.167  0.4180 -0.4171  0.8070
 

 ---------------------------------------------------------------------------------

 1\1\GINC-LOCALHOST\Stability\UMN15\6-31G(d,p)\C7H13(2)\JZZENG\06-Aug-2
 019\0\\#mn15/6-31g** stable=opt nosymm scf(maxcyc=512)\\DPGEN\\0,2\C,0
 ,40.9287,21.974,38.4243\C,0,39.6113,21.9465,39.4466\C,0,39.5837,21.935
 9,41.0881\C,0,40.5351,20.8477,41.0192\C,0,41.6708,21.2669,42.0895\C,0,
 41.5102,21.4504,43.6033\C,0,42.0937,22.4671,44.6771\H,0,40.7274,22.073
 9,37.4974\H,0,41.6781,22.7849,38.7914\H,0,39.0785,20.9028,38.9622\H,0,
 39.1605,22.8685,39.1868\H,0,38.5759,21.6821,41.1571\H,0,39.733,22.9592
 ,41.3309\H,0,40.9748,20.9371,40.0151\H,0,39.7529,20.0048,40.8674\H,0,4
 2.1817,22.2685,41.9158\H,0,42.6849,20.3254,41.9751\H,0,41.6634,20.5363
 ,43.7852\H,0,40.412,21.2711,43.5718\H,0,42.8889,23.3784,44.3826\\Versi
 on=ES64L-G16RevA.03\HF=-273.6995385\S2=1.221\S2-1=0.\S2A=0.756348\RMSD
 =4.107e-09\Dipole=-0.3649779,0.1961483,-0.7461443\Quadrupole=-2.290130
 1,71.0798928,-68.7897627,1.4737258,-85.9424453,-16.6919285\PG=C01 [X(C
 7H13)]\\@


 A SOLDIER'S LIFE IS A LIFE OF HONOR, BUT A DOG WOULD NOT LEAD IT.
 -- PRINCE RUPERT, FOUNDER OF THE HUDSON'S BAY COMPANY
 Job cpu time:       0 days  2 hours  3 minutes  1.4 seconds.
 Elapsed time:       0 days  0 hours  4 minutes 24.1 seconds.
 File lengths (MBytes):  RWF=    185 Int=      0 D2E=      0 Chk=      6 Scr=      1
 Normal termination of Gaussian 16 at Tue Aug  6 21:55:57 2019.
 Initial command:
 /home/jzzeng/soft/g16/l1.exe "/home/jzzeng/0719dodecane/gen2/gen/testgaussian/Gau-32118.inp" -scrdir="/home/jzzeng/0719dodecane/gen2/gen/testgaussian/"
 Entering Link 1 = /home/jzzeng/soft/g16/l1.exe PID=     32674.
  
 Copyright (c) 1988,1990,1992,1993,1995,1998,2003,2009,2016,
            Gaussian, Inc.  All Rights Reserved.
  
 This is part of the Gaussian(R) 16 program.  It is based on
 the Gaussian(R) 09 system (copyright 2009, Gaussian, Inc.),
 the Gaussian(R) 03 system (copyright 2003, Gaussian, Inc.),
 the Gaussian(R) 98 system (copyright 1998, Gaussian, Inc.),
 the Gaussian(R) 94 system (copyright 1995, Gaussian, Inc.),
 the Gaussian 92(TM) system (copyright 1992, Gaussian, Inc.),
 the Gaussian 90(TM) system (copyright 1990, Gaussian, Inc.),
 the Gaussian 88(TM) system (copyright 1988, Gaussian, Inc.),
 the Gaussian 86(TM) system (copyright 1986, Carnegie Mellon
 University), and the Gaussian 82(TM) system (copyright 1983,
 Carnegie Mellon University). Gaussian is a federally registered
 trademark of Gaussian, Inc.
  
 This software contains proprietary and confidential information,
 including trade secrets, belonging to Gaussian, Inc.
  
 This software is provided under written license and may be
 used, copied, transmitted, or stored only in accord with that
 written license.
  
 The following legend is applicable only to US Government
 contracts under FAR:
  
                    RESTRICTED RIGHTS LEGEND
  
 Use, reproduction and disclosure by the US Government is
 subject to restrictions as set forth in subparagraphs (a)
 and (c) of the Commercial Computer Software - Restricted
 Rights clause in FAR 52.227-19.
  
 Gaussian, Inc.
[...]
  YYZ=          -1957.6390  XYZ=          -1672.9606
 Hexadecapole moment (field-independent basis, Debye-Ang**3):
 XXXX=        -719871.6852 YYYY=        -107640.4512 ZZZZ=       -1113847.5544 XXXY=        -181790.6596
 XXXZ=        -556284.1275 YYYX=         -98725.5409 YYYZ=        -114972.2102 ZZZX=        -744399.8358
 ZZZY=        -335860.9941 XXYY=         -91043.9237 XXZZ=        -561853.6348 YYZZ=        -147664.9714
 XXYZ=        -140938.5522 YYXZ=         -94879.1278 ZZXY=        -190814.6966
 N-N= 2.849956437047D+02 E-N=-1.200642091511D+03  KE= 2.695570993907D+02
                          Isotropic Fermi Contact Couplings
        Atom                 a.u.       MegaHertz       Gauss      10(-4) cm-1
     1  C(13)              0.25388     285.40519     101.83967      95.20092
     2  C(13)             -0.02774     -31.18097     -11.12615     -10.40085
     3  C(13)             -0.00167      -1.87812      -0.67016      -0.62647
     4  C(13)              0.01307      14.68874       5.24131       4.89963
     5  C(13)             -0.00201      -2.26337      -0.80763      -0.75498
     6  C(13)              0.00980      11.01636       3.93091       3.67466
     7  C(13)              0.00471       5.29605       1.88976       1.76657
     8  H(1)              -0.01426     -63.73646     -22.74275     -21.26019
     9  H(1)              -0.01445     -64.59130     -23.04778     -21.54534
    10  H(1)               0.00493      22.02482       7.85900       7.34669
    11  H(1)               0.01171      52.33852      18.67568      17.45825
    12  H(1)               0.00097       4.32279       1.54248       1.44193
    13  H(1)               0.00008       0.34816       0.12423       0.11613
    14  H(1)              -0.00374     -16.69885      -5.95857      -5.57014
    15  H(1)              -0.00088      -3.92501      -1.40054      -1.30924
    16  H(1)               0.00012       0.52687       0.18800       0.17574
    17  H(1)              -0.00092      -4.12806      -1.47300      -1.37697
    18  H(1)               0.00822      36.72184      13.10327      12.24909
    19  H(1)              -0.01217     -54.40168     -19.41187     -18.14645
    20  H(1)               0.00015       0.67378       0.24042       0.22475
 --------------------------------------------------------
       Center         ----  Spin Dipole Couplings  ----
                      3XX-RR        3YY-RR        3ZZ-RR
 --------------------------------------------------------
     1   Atom       -0.155310      0.625194     -0.469884
     2   Atom       -0.004496      0.006380     -0.001884
     3   Atom       -0.001525     -0.003858      0.005383
     4   Atom       -0.007053     -0.031246      0.038299
     5   Atom       -0.005314     -0.003988      0.009302
     6   Atom        0.011326     -0.024970      0.013644
     7   Atom       -0.421444      0.154198      0.267246
     8   Atom       -0.060739     -0.014538      0.075277
     9   Atom        0.007894      0.035385     -0.043279
    10   Atom        0.014315     -0.005611     -0.008703
    11   Atom        0.006507     -0.002780     -0.003727
    12   Atom        0.001455     -0.002664      0.001209
    13   Atom       -0.002130     -0.001547      0.003677
    14   Atom       -0.027976     -0.021896      0.049872
    15   Atom       -0.001322     -0.000420      0.001742
    16   Atom       -0.002486     -0.002052      0.004538
    17   Atom       -0.000973     -0.001948      0.002921
    18   Atom       -0.001884      0.002146     -0.000262
    19   Atom        0.000302     -0.004105      0.003803
    20   Atom       -0.006906     -0.000433      0.007339
 --------------------------------------------------------
                        XY            XZ            YZ
 --------------------------------------------------------
     1   Atom       -0.585899      0.078357     -0.142540
     2   Atom       -0.031546     -0.027327      0.014401
     3   Atom       -0.003877     -0.001912     -0.001285
     4   Atom        0.002300     -0.034083     -0.006326
     5   Atom       -0.000305      0.004509     -0.000746
     6   Atom        0.006745      0.021214     -0.019437
     7   Atom        0.073191      0.672283     -0.594997
     8   Atom       -0.038413      0.034288     -0.014979
     9   Atom        0.036237      0.030877      0.024039
    10   Atom        0.009309     -0.006586     -0.002828
    11   Atom       -0.008344     -0.010306     -0.001428
    12   Atom       -0.000019     -0.004407     -0.000604
    13   Atom       -0.001400     -0.002727      0.002904
    14   Atom        0.004549     -0.016693     -0.026760
    15   Atom        0.005448     -0.003123     -0.003539
    16   Atom        0.000598      0.002759      0.001389
    17   Atom       -0.001010      0.002195     -0.001461
    18   Atom        0.003466      0.002438      0.003554
    19   Atom       -0.002953     -0.001426     -0.002750
    20   Atom        0.002937      0.017222     -0.013846
 --------------------------------------------------------


 ---------------------------------------------------------------------------------
              Anisotropic Spin Dipole Couplings in Principal Axis System
 ---------------------------------------------------------------------------------

       Atom             a.u.   MegaHertz   Gauss  10(-4) cm-1        Axes

              Baa    -0.4886   -65.563   -23.394   -21.869 -0.1332  0.0565  0.9895
     1 C(13)  Bbb    -0.4689   -62.917   -22.450   -20.987  0.8730  0.4793  0.0902
              Bcc     0.9574   128.480    45.845    42.856 -0.4691  0.8758 -0.1132
 
              Baa    -0.0369    -4.948    -1.766    -1.651  0.7891  0.4291  0.4396
     2 C(13)  Bbb    -0.0126    -1.687    -0.602    -0.563 -0.0565 -0.6619  0.7474
              Bcc     0.0494     6.635     2.368     2.213 -0.6117  0.6146  0.4981
 
              Baa    -0.0071    -0.955    -0.341    -0.319  0.6002  0.7812  0.1721
     3 C(13)  Bbb     0.0012     0.165     0.059     0.055  0.7655 -0.6233  0.1597
              Bcc     0.0059     0.790     0.282     0.263 -0.2320 -0.0359  0.9720
 
              Baa    -0.0319    -4.279    -1.527    -1.427  0.0919  0.9868  0.1336
     4 C(13)  Bbb    -0.0252    -3.378    -1.205    -1.127  0.8778 -0.1436  0.4570
              Bcc     0.0571     7.657     2.732     2.554 -0.4702 -0.0752  0.8794
 
              Baa    -0.0066    -0.885    -0.316    -0.295  0.9619  0.0349 -0.2712
     5 C(13)  Bbb    -0.0040    -0.541    -0.193    -0.180 -0.0187  0.9979  0.0622
              Bcc     0.0106     1.426     0.509     0.476  0.2728 -0.0547  0.9605
 
              Baa    -0.0377    -5.064    -1.807    -1.689 -0.3081  0.8407  0.4453
     6 C(13)  Bbb     0.0023     0.310     0.110     0.103  0.7197  0.5121 -0.4688
              Bcc     0.0354     4.754     1.696     1.586  0.6221 -0.1760  0.7629
 
              Baa    -0.9724  -130.485   -46.560   -43.525  0.7429 -0.3497 -0.5708
     7 C(13)  Bbb    -0.0023    -0.305    -0.109    -0.102  0.5736  0.7721  0.2736
              Bcc     0.9747   130.790    46.669    43.627  0.3450 -0.5307  0.7742
 
              Baa    -0.0858   -45.777   -16.334   -15.270  0.8833  0.4453 -0.1466
     8 H(1)   Bbb    -0.0033    -1.784    -0.637    -0.595 -0.3806  0.8637  0.3305
              Bcc     0.0891    47.562    16.971    15.865  0.2738 -0.2362  0.9323
 
              Baa    -0.0584   -31.139   -11.111   -10.387 -0.3803 -0.0891  0.9206
     9 H(1)   Bbb    -0.0142    -7.587    -2.707    -2.531  0.7260 -0.6454  0.2375
              Bcc     0.0726    38.726    13.818    12.918  0.5730  0.7586  0.3101
 
              Baa    -0.0105    -5.623    -2.006    -1.876  0.1638  0.2398  0.9569
    10 H(1)   Bbb    -0.0092    -4.935    -1.761    -1.646 -0.4006  0.9026 -0.1576
              Bcc     0.0198    10.558     3.767     3.522  0.9015  0.3575 -0.2439
 
              Baa    -0.0135    -7.218    -2.575    -2.408  0.5519  0.5156  0.6555
    11 H(1)   Bbb    -0.0018    -0.938    -0.335    -0.313  0.0110  0.7814 -0.6239
              Bcc     0.0153     8.155     2.910     2.720  0.8338 -0.3515 -0.4256
 
              Baa    -0.0034    -1.797    -0.641    -0.599  0.5664  0.5457  0.6176
    12 H(1)   Bbb    -0.0024    -1.277    -0.456    -0.426 -0.4109  0.8366 -0.3624
              Bcc     0.0058     3.073     1.097     1.025  0.7144  0.0485 -0.6981
 
              Baa    -0.0033    -1.771    -0.632    -0.591  0.8905  0.4212  0.1722
    13 H(1)   Bbb    -0.0028    -1.488    -0.531    -0.496 -0.2927  0.8200 -0.4918
              Bcc     0.0061     3.259     1.163     1.087 -0.3484  0.3875  0.8535
 
              Baa    -0.0320   -17.069    -6.091    -5.694  0.7825  0.5269  0.3318
    14 H(1)   Bbb    -0.0301   -16.047    -5.726    -5.353 -0.5934  0.7924  0.1413
              Bcc     0.0621    33.116    11.817    11.046 -0.1884 -0.3075  0.9327
 
              Baa    -0.0063    -3.383    -1.207    -1.128  0.7308 -0.6824 -0.0164
    15 H(1)   Bbb    -0.0018    -0.939    -0.335    -0.313  0.4165  0.4267  0.8028
              Bcc     0.0081     4.321     1.542     1.441 -0.5408 -0.5935  0.5961
 
              Baa    -0.0035    -1.841    -0.657    -0.614  0.9458 -0.0970 -0.3098
    16 H(1)   Bbb    -0.0023    -1.244    -0.444    -0.415  0.0314  0.9772 -0.2101
              Bcc     0.0058     3.085     1.101     1.029  0.3231  0.1890  0.9273
 
              Baa    -0.0026    -1.379    -0.492    -0.460  0.5020  0.8644  0.0292
    17 H(1)   Bbb    -0.0018    -0.964    -0.344    -0.322  0.7628 -0.4266 -0.4860
              Bcc     0.0044     2.343     0.836     0.781  0.4076 -0.2662  0.8735
 
              Baa    -0.0040    -2.113    -0.754    -0.705  0.8977 -0.3750 -0.2313
    18 H(1)   Bbb    -0.0028    -1.499    -0.535    -0.500 -0.0267 -0.5702  0.8210
              Bcc     0.0068     3.612     1.289     1.205  0.4398  0.7309  0.5219
 
              Baa    -0.0065    -3.476    -1.240    -1.160  0.4307  0.8555  0.2875
    19 H(1)   Bbb     0.0018     0.951     0.339     0.317  0.8914 -0.4530  0.0126
              Bcc     0.0047     2.525     0.901     0.842 -0.1410 -0.2508  0.9577
 
              Baa    -0.0234   -12.483    -4.454    -4.164  0.6854 -0.4383 -0.5815
    20 H(1)   Bbb    -0.0000    -0.010    -0.004    -0.003  0.5963  0.7962  0.1027
              Bcc     0.0234    12.493     4.458     4.167  0.4180 -0.4171  0.8070
 

 ---------------------------------------------------------------------------------

 Calling FoFJK, ICntrl=      2127 FMM=F ISym2X=0 I1Cent= 0 IOpClX= 1 NMat=1 NMatS=1 NMatT=0.
 -------------------------------------------------------------------
 Center     Atomic                   Forces (Hartrees/Bohr)
 Number     Number              X              Y              Z
 -------------------------------------------------------------------
      1        6           0.017335575    0.046063399    0.199355094
      2        6          -0.015723594   -0.028230576   -0.066045112
      3        6          -0.007235495    0.024414002   -0.120342642
      4        6           0.039176242   -0.017809688    0.056770715
      5        6           0.101945085   -0.046353062   -0.027345572
      6        6          -0.053325391    0.121535994   -0.025474030
      7        6           0.006602785    0.000927741   -0.041150797
      8        1          -0.033312284    0.003004129   -0.133963669
      9        1          -0.016283431   -0.034070114   -0.012850286
     10        1           0.013500962    0.061713027    0.032337853
     11        1          -0.031376197    0.016517869   -0.023226862
     12        1          -0.037294704   -0.008087645    0.022885705
     13        1           0.016974642    0.014781395    0.019185962
     14        1           0.025941978   -0.022921613    0.026000552
     15        1           0.045057204   -0.002292394    0.028218279
     16        1          -0.013644708   -0.021655258   -0.032005826
     17        1          -0.054115324    0.058538596    0.001191346
     18        1           0.041128605   -0.144349966    0.068804451
     19        1          -0.006464725    0.026076864    0.029162023
     20        1          -0.038887227   -0.047802700   -0.001507183
 -------------------------------------------------------------------
 Cartesian Forces:  Max     0.199355094 RMS     0.054281346

 GradGradGradGradGradGradGradGradGradGradGradGradGradGradGradGradGradGrad
 Berny optimization.
 Search for a local minimum.
 Step number   1 out of a maximum of    2
 All quantities printed in internal units (Hartrees-Bohrs-Radians)
 Second derivative matrix not updated -- first step.
 ITU=  0
     Eigenvalues ---    0.00048   0.00082   0.00110   0.00157   0.00321
     Eigenvalues ---    0.00594   0.00729   0.00818   0.01230   0.02084
     Eigenvalues ---    0.02590   0.03254   0.03564   0.04116   0.04317
     Eigenvalues ---    0.04600   0.04828   0.05448   0.05606   0.06003
     Eigenvalues ---    0.06115   0.07137   0.07448   0.07932   0.08610
     Eigenvalues ---    0.09593   0.11360   0.11727   0.12556   0.13473
     Eigenvalues ---    0.15051   0.15603   0.17506   0.18578   0.20293
     Eigenvalues ---    0.21784   0.33766   0.38565   0.42050   0.44481
     Eigenvalues ---    0.46358   0.55096   0.63358   0.68431   0.73273
     Eigenvalues ---    0.79652   0.86092   0.88814   0.90519   1.02586
     Eigenvalues ---    1.13333   1.23372   1.26542   1.31995
 Quadratic step=1.005D+01 exceeds max=3.000D-01 adjusted using Lamda=-7.638D-01.
 Angle between NR and scaled steps=  74.37 degrees.
 Angle between quadratic step and forces=  20.72 degrees.
 Linear search not attempted -- first point.
 B after Tr=     0.054351   -0.043176   -0.031024
         Rot=    1.000000   -0.000107    0.000122   -0.000404 Ang=  -0.05 deg.
 Variable       Old X    -DE/DX   Delta X   Delta X   Delta X     New X
                                 (Linear)    (Quad)   (Total)
    X1       77.34403   0.01734   0.00000  -0.01247  -0.00947  77.33456
    Y1       41.52484   0.04606   0.00000   0.03999   0.04361  41.56846
    Z1       72.61140   0.19936   0.00000   0.11059   0.10738  72.71878
    X2       74.85451  -0.01572   0.00000  -0.02531  -0.02266  74.83185
    Y2       41.47287  -0.02823   0.00000  -0.00468  -0.00345  41.46942
    Z2       74.54327  -0.06605   0.00000  -0.05083  -0.05467  74.48860
    X3       74.80235  -0.00724   0.00000  -0.01019  -0.00829  74.79406
    Y3       41.45284   0.02441   0.00000   0.01859   0.01913  41.47198
    Z3       77.64526  -0.12034   0.00000  -0.09122  -0.09507  77.55019
    X4       76.60024   0.03918   0.00000   0.03322   0.03680  76.63704
    Y4       39.39644  -0.01781   0.00000  -0.01375  -0.01172  39.38472
    Z4       77.51505   0.05677   0.00000   0.04716   0.04331  77.55836
    X5       78.74640   0.10195   0.00000   0.07573   0.07821  78.82461
    Y5       40.18862  -0.04635   0.00000  -0.04101  -0.03764  40.15098
    Z5       79.53763  -0.02735   0.00000  -0.01328  -0.01643  79.52120
    X6       78.44291  -0.05333   0.00000  -0.03031  -0.02888  78.41403
    Y6       40.53538   0.12154   0.00000   0.03907   0.04150  40.57688
    Z6       82.39830  -0.02547   0.00000  -0.01140  -0.01456  82.38374
    X7       79.54556   0.00660   0.00000  -0.00016  -0.00072  79.54484
    Y7       42.45667   0.00093   0.00000  -0.00647  -0.00355  42.45311
    Z7       84.42748  -0.04115   0.00000  -0.03796  -0.04044  84.38704
    X8       76.96363  -0.03331   0.00000  -0.01909  -0.01573  76.94790
    Y8       41.71363   0.00300   0.00000  -0.01236  -0.00864  41.70499
    Z8       70.85982  -0.13396   0.00000  -0.05811  -0.06139  70.79843
    X9       78.76019  -0.01628   0.00000  -0.00901  -0.00733  78.75286
    Y9       43.05722  -0.03407   0.00000  -0.02698  -0.02233  43.03489
    Z9       73.30512  -0.01285   0.00000   0.00102  -0.00153  73.30359
   X10       73.84766   0.01350   0.00000   0.00609   0.01048  73.85814
   Y10       39.50057   0.06171   0.00000   0.05995   0.06057  39.56114
   Z10       73.62789   0.03234   0.00000   0.03108   0.02659  73.65448
   X11       74.00262  -0.03138   0.00000  -0.03807  -0.03673  73.96589
   Y11       43.21520   0.01652   0.00000   0.01332   0.01395  43.22915
   Z11       74.05232  -0.02323   0.00000  -0.03003  -0.03371  74.01861
   X12       72.89789  -0.03729   0.00000  -0.03314  -0.03090  72.86699
   Y12       40.97323  -0.00809   0.00000  -0.00387  -0.00493  40.96830
   Z12       77.77565   0.02289   0.00000   0.02004   0.01561  77.79126
   X13       75.08449   0.01697   0.00000   0.01800   0.01821  75.10269
   Y13       43.38660   0.01478   0.00000   0.01262   0.01329  43.39989
   Z13       78.10408   0.01919   0.00000   0.01061   0.00724  78.11133
   X14       77.43115   0.02594   0.00000   0.03194   0.03586  77.46701
   Y14       39.56538  -0.02292   0.00000  -0.03458  -0.03147  39.53391
   Z14       75.61758   0.02600   0.00000   0.03915   0.03554  75.65312
   X15       75.12209   0.04506   0.00000   0.05117   0.05610  75.17820
   Y15       37.80359  -0.00229   0.00000  -0.00780  -0.00689  37.79670
   Z15       77.22819   0.02822   0.00000   0.04196   0.03741  77.26561
   X16       79.71186  -0.01364   0.00000  -0.00867  -0.00765  79.70422
   Y16       42.08137  -0.02166   0.00000  -0.02683  -0.02267  42.05870
   Z16       79.20938  -0.03201   0.00000  -0.04002  -0.04254  79.16684
   X17       80.66277  -0.05412   0.00000  -0.04980  -0.04591  80.61686
   Y17       38.40944   0.05854   0.00000   0.05398   0.05884  38.46828
   Z17       79.32144   0.00119   0.00000   0.00306  -0.00001  79.32143
   X18       78.73242   0.04113   0.00000   0.02869   0.03151  78.76393
   Y18       38.80798  -0.14435   0.00000  -0.08451  -0.08189  38.72609
   Z18       82.74204   0.06880   0.00000   0.06717   0.06370  82.80574
   X19       76.36761  -0.00646   0.00000  -0.01549  -0.01377  76.35384
   Y19       40.19655   0.02608   0.00000   0.03178   0.03255  40.22910
   Z19       82.33877   0.02916   0.00000   0.03545   0.03171  82.37048
   X20       81.04827  -0.03889   0.00000  -0.03736  -0.03915  81.00913
   Y20       44.17877  -0.04780   0.00000  -0.05246  -0.04826  44.13052
   Z20       83.87096  -0.00151   0.00000  -0.00640  -0.00816  83.86280
         Item               Value     Threshold  Converged?
 Maximum Force            0.199355     0.000450     NO 
 RMS     Force            0.054281     0.000300     NO 
 Maximum Displacement     0.107376     0.001800     NO 
 RMS     Displacement     0.038669     0.001200     NO 
 Predicted change in Energy=-9.355165D-02
 GradGradGradGradGradGradGradGradGradGradGradGradGradGradGradGradGradGrad

 1\1\GINC-LOCALHOST\Force\UMN15\6-31G(d,p)\C7H13(2)\JZZENG\06-Aug-2019\
 0\\#mn15/6-31g** force nosymm scf(maxcyc=512) geom=chk guess=read\\DPG
 EN\\0,2\C,40.9287,21.974,38.4243\C,39.6113,21.9465,39.4466\C,39.5837,2
 1.9359,41.0881\C,40.5351,20.8477,41.0192\C,41.6708,21.2669,42.0895\C,4
 1.5102,21.4504,43.6033\C,42.0937,22.4671,44.6771\H,40.7274,22.0739,37.
 4974\H,41.6781,22.7849,38.7914\H,39.0785,20.9028,38.9622\H,39.1605,22.
 8685,39.1868\H,38.5759,21.6821,41.1571\H,39.733,22.9592,41.3309\H,40.9
 748,20.9371,40.0151\H,39.7529,20.0048,40.8674\H,42.1817,22.2685,41.915
 8\H,42.6849,20.3254,41.9751\H,41.6634,20.5363,43.7852\H,40.412,21.2711
 ,43.5718\H,42.8889,23.3784,44.3826\\Version=ES64L-G16RevA.03\HF=-273.6
 995385\S2=1.220999\S2-1=0.\S2A=0.756348\RMSD=3.932e-09\RMSF=5.428e-02\
 Dipole=-0.3649781,0.1961487,-0.7461448\Quadrupole=-2.2901269,71.07995,
 -68.7898231,1.4737502,-85.9424956,-16.6919182\PG=C01 [X(C7H13)]\\@


 NOT WHAT WE DID SHALL BE THE TEST
 WHEN ACT AND WILL ARE DONE,
 BUT WHAT OUR LORD INFERS WE WOULD-
 HAD WE DIVINER BEEN.
           EMILY DICKINSON  POEMS NO. CLXXV
 Job cpu time:       0 days  0 hours  2 minutes 20.7 seconds.
 Elapsed time:       0 days  0 hours  0 minutes  5.1 seconds.
 File lengths (MBytes):  RWF=     33 Int=      0 D2E=      0 Chk=      6 Scr=      1
 Normal termination of Gaussian 16 at Tue Aug  6 21:56:03 2019.
