1.100300000000000011e+02 5.704099999999999682e+01 1.179579999999999984e+02 1.086929999999999978e+02 6.028679999999999950e+01 1.125430000000000064e+02 1.068199999999999932e+02 5.959239999999999782e+01 1.116410000000000053e+02 1.076009999999999991e+02 5.898239999999999839e+01 1.132780000000000058e+02 1.087420000000000044e+02 5.874819999999999709e+01 1.116149999999999949e+02 1.102965679999999935e+02 5.786462999999999823e+01 1.186203249999999940e+02 1.080220000000000056e+02 5.951830000000000354e+01 1.121059999999999945e+02 1.105690000000000026e+02 5.634479999999999933e+01 1.133359999999999985e+02 1.106140000000000043e+02 5.707990000000000208e+01 1.125199999999999960e+02
