1.201138815023103934e+00 3.710158629847006395e+00 2.983299787070747833e+00 -1.198061667083253123e+00 5.819386011111030710e-01 -9.890851616511081579e-01 4.265122551333783818e+00 6.388430837334850843e-01 8.069463988776000019e-01 1.555887471512285014e+00 1.092163267010777261e+00 -3.411564413703998433e+00 -1.826721741638536178e+00 1.119964196415313307e+00 5.595968440781240449e-01 -1.201003832095978607e+00 -3.710239928135686593e+00 -2.983440529269430819e+00 -2.824512505047183986e+00 -3.405218467778812208e+00 3.025525789109944963e+00 -3.793107669737203619e-02 -6.588083184959783178e-01 7.323562217439503197e-01 6.608203611521919207e-02 6.311989362927917790e-01 -7.236348334116955439e-01
