LAMMPS (16 Mar 2018)
clear
variable        GPa2bar	equal 1e4
variable        B0		equal 70.000000
variable        bp		equal 0.000000
variable	    xx		equal 1.000000
variable        yeta	equal 1.5*(${bp}-1)
variable        yeta	equal 1.5*(0-1)
variable        Px0		equal 3*${B0}*(1-${xx})/${xx}^2*exp(${yeta}*(1-${xx}))
variable        Px0		equal 3*70*(1-${xx})/${xx}^2*exp(${yeta}*(1-${xx}))
variable        Px0		equal 3*70*(1-1)/${xx}^2*exp(${yeta}*(1-${xx}))
variable        Px0		equal 3*70*(1-1)/1^2*exp(${yeta}*(1-${xx}))
variable        Px0		equal 3*70*(1-1)/1^2*exp(-1.5*(1-${xx}))
variable        Px0		equal 3*70*(1-1)/1^2*exp(-1.5*(1-1))
variable        Px		equal ${Px0}*${GPa2bar}
variable        Px		equal 0*${GPa2bar}
variable        Px		equal 0*10000
units       metal
dimension   3
boundary	p p p
atom_style	atomic
box         tilt large
read_data   conf.lmp
  triclinic box = (0 0 0) to (7.71008 6.67713 6.29526) with tilt (3.85504 3.85504 2.22571)
  1 by 1 by 1 MPI processor grid
  reading atoms ...
  26 atoms
mass            1 1
neigh_modify    every 1 delay 0 check no
pair_style deepmd frozen_model.pb
pair_coeff
compute         mype all pe
thermo          100
thermo_style    custom step pe pxx pyy pzz pxy pxz pyz lx ly lz vol c_mype
dump            1 all custom 100 dump.relax id type xs ys zs fx fy fz
min_style       cg
fix             1 all box/relax iso ${Px}
fix             1 all box/relax iso 0
minimize        1.000000e-12 1.000000e-06 5000 500000
WARNING: Using 'neigh_modify every 1 delay 0 check yes' setting during minimization (../min.cpp:168)
Neighbor list info ...
  update every 1 steps, delay 0 steps, check yes
  max neighbors/atom: 2000, page size: 100000
  master list distance cutoff = 10
  ghost atom cutoff = 10
  binsize = 5, bins = 4 2 2
  1 neighbor lists, perpetual/occasional/extra = 1 0 0
  (1) pair deepmd, perpetual
      attributes: , newton on
      pair build: full/bin/atomonly
      stencil: full/bin/3d
      bin: standard
Per MPI rank memory allocation (min/avg/max) = 5.138 | 5.138 | 5.138 Mbytes
Step PotEng Pxx Pyy Pzz Pxy Pxz Pyz Lx Ly Lz Volume c_mype 
       0   -95.875716   -16298.659   -16298.641   -16298.637 -0.015266024 -0.010794519 -0.0062324091    7.7100816    6.6771266    6.2952553    324.08724   -95.875716 
     100    -95.91525   -39.664805   -39.647895   -39.643685 -0.014643631 -0.010354552 -0.0059784034    7.6761573    6.6477472    6.2675562    319.82808    -95.91525 
     112   -95.915853 -0.046240236 -0.036056041 -0.033527238 -0.0088186018 -0.0062356951 -0.003600466    7.6757179    6.6473667    6.2671975    319.77317   -95.915853 
Loop time of 7.54827 on 1 procs for 112 steps with 26 atoms

291.6% CPU use with 1 MPI tasks x no OpenMP threads

Minimization stats:
  Stopping criterion = energy tolerance
  Energy initial, next-to-last, final = 
        -95.8757155234      -95.915852754      -95.915852754
  Force two-norm initial, final = 9.90424 7.82854e-05
  Force max component initial, final = 9.89064 2.32203e-05
  Final line search alpha, max atom move = 0.414316 9.62055e-06
  Iterations, force evaluations = 112 119

MPI task timing breakdown:
Section |  min time  |  avg time  |  max time  |%varavg| %total
---------------------------------------------------------------
Pair    | 7.538      | 7.538      | 7.538      |   0.0 | 99.86
Neigh   | 0          | 0          | 0          |   0.0 |  0.00
Comm    | 0.0014932  | 0.0014932  | 0.0014932  |   0.0 |  0.02
Output  | 0.0024092  | 0.0024092  | 0.0024092  |   0.0 |  0.03
Modify  | 0          | 0          | 0          |   0.0 |  0.00
Other   |            | 0.006382   |            |       |  0.08

Nlocal:    26 ave 26 max 26 min
Histogram: 1 0 0 0 0 0 0 0 0 0
Nghost:    1638 ave 1638 max 1638 min
Histogram: 1 0 0 0 0 0 0 0 0 0
Neighs:    0 ave 0 max 0 min
Histogram: 1 0 0 0 0 0 0 0 0 0

Total # of neighbors = 0
Ave neighs/atom = 0
Neighbor list builds = 0
Dangerous builds not checked
fix             1 all box/relax aniso ${Px}
fix             1 all box/relax aniso 0
minimize        1.000000e-12 1.000000e-06 5000 500000
WARNING: Using 'neigh_modify every 1 delay 0 check yes' setting during minimization (../min.cpp:168)
Per MPI rank memory allocation (min/avg/max) = 5.138 | 5.138 | 5.138 Mbytes
Step PotEng Pxx Pyy Pzz Pxy Pxz Pyz Lx Ly Lz Volume c_mype 
     112   -95.915853 -0.046240236 -0.036056041 -0.033527238 -0.0088186018 -0.0062356951 -0.003600466    7.6757179    6.6473667    6.2671975    319.77317   -95.915853 
     113   -95.915853   0.90945929   0.85612166   0.82746763 -0.034489761 -0.026566781 0.0074676856    7.6757159    6.6473654    6.2671963    319.77296   -95.915853 
Loop time of 0.196985 on 1 procs for 1 steps with 26 atoms

283.3% CPU use with 1 MPI tasks x no OpenMP threads

Minimization stats:
  Stopping criterion = energy tolerance
  Energy initial, next-to-last, final = 
         -95.915852754      -95.915852754     -95.9158527541
  Force two-norm initial, final = 7.59682e-05 0.000303809
  Force max component initial, final = 1.89597e-05 0.000181516
  Final line search alpha, max atom move = 1 0.000181516
  Iterations, force evaluations = 1 2

MPI task timing breakdown:
Section |  min time  |  avg time  |  max time  |%varavg| %total
---------------------------------------------------------------
Pair    | 0.19656    | 0.19656    | 0.19656    |   0.0 | 99.79
Neigh   | 0          | 0          | 0          |   0.0 |  0.00
Comm    | 5.1975e-05 | 5.1975e-05 | 5.1975e-05 |   0.0 |  0.03
Output  | 0          | 0          | 0          |   0.0 |  0.00
Modify  | 0          | 0          | 0          |   0.0 |  0.00
Other   |            | 0.0003681  |            |       |  0.19

Nlocal:    26 ave 26 max 26 min
Histogram: 1 0 0 0 0 0 0 0 0 0
Nghost:    1638 ave 1638 max 1638 min
Histogram: 1 0 0 0 0 0 0 0 0 0
Neighs:    0 ave 0 max 0 min
Histogram: 1 0 0 0 0 0 0 0 0 0

Total # of neighbors = 0
Ave neighs/atom = 0
Neighbor list builds = 0
Dangerous builds not checked
variable        N equal count(all)
variable        V equal vol
variable        E equal "c_mype"
variable        Pxx equal pxx
variable        Pyy equal pyy
variable        Pzz equal pzz
variable        Pxy equal pxy
variable        Pxz equal pxz
variable        Pyz equal pyz
variable        Epa equal ${E}/${N}
variable        Epa equal -95.9158527540701/${N}
variable        Epa equal -95.9158527540701/26
variable        Vpa equal ${V}/${N}
variable        Vpa equal 319.772963171318/${N}
variable        Vpa equal 319.772963171318/26
print "All done"
All done
print "Total number of atoms  = ${N}"
Total number of atoms  = 26
print "Relax at Press         = ${Px} Bar"
Relax at Press         = 0 Bar
print "Final energy per atoms = ${Epa} eV"
Final energy per atoms = -3.68907125977193 eV
print "Final volume per atoms = ${Vpa} A^3"
Final volume per atoms = 12.2989601219738 A^3
print "Final Stress (xx yy zz xy xz yz) = ${Pxx} ${Pyy} ${Pzz} ${Pxy} ${Pxz} ${Pyz}"
Final Stress (xx yy zz xy xz yz) = 0.909459285237151 0.856121660342119 0.827467631807261 -0.0344897608826387 -0.0265667811238651 0.00746768557098147
Total wall time: 0:00:09
