 vasp.5.4.1 24Jun15 (build Dec 14 2019 20:21:40) complex                        
  
 executed on           IFC91_ompi date 2020.01.05  15:53:38
 running on   40 total cores
 distrk:  each k-point on   40 cores,    1 groups
 distr:  one band on NCORES_PER_BAND=  10 cores,    4 groups


--------------------------------------------------------------------------------------------------------


 INCAR:
 POTCAR:    PAW_PBE Li 17Jan2003                  
 POTCAR:    PAW_PBE Li 17Jan2003                  
  local pseudopotential read in
  partial core-charges read in
  partial kinetic energy density read in
  atomic valenz-charges read in
  non local Contribution for L=           0  read in
    real space projection operators read in
  non local Contribution for L=           0  read in
    real space projection operators read in
  non local Contribution for L=           1  read in
    real space projection operators read in
    PAW grid and wavefunctions read in
 
   number of l-projection  operators is LMAX  =           3
   number of lm-projection operators is LMMAX =           5
 

 ----------------------------------------------------------------------------- 
|                                                                             |
|  ADVICE TO THIS USER RUNNING 'VASP/VAMP'   (HEAR YOUR MASTER'S VOICE ...):  |
|                                                                             |
|      You have a (more or less) 'large supercell' and for larger cells       |
|      it might be more efficient to use real space projection opertators     |
|      So try LREAL= Auto  in the INCAR   file.                               |
|      Mind: At the moment your POTCAR file does not contain real space       |
|       projectors, and has to be modified,  BUT if you                       |
|      want to do an extremely  accurate calculation you might also keep the  |
|      reciprocal projection scheme          (i.e. LREAL=.FALSE.)             |
|                                                                             |
 ----------------------------------------------------------------------------- 

  PAW_PBE Li 17Jan2003                  :
 energy of atom  1       EATOM=   -5.3001
 kinetic energy error for atom=    0.0000 (will be added to EATOM!!)
 
 
 POSCAR: Li40                                    
  positions in direct lattice
  No initial velocities read in
 exchange correlation table for  LEXCH =        8
   RHO(1)=    0.500       N(1)  =     2000
   RHO(2)=  100.500       N(2)  =     4000
 


--------------------------------------------------------------------------------------------------------


 ion  position               nearest neighbor table
   1  0.093  0.116  0.000-  10 1.61  40 1.93  15 2.06  32 2.07  27 2.08  39 2.16  17 2.21  22 2.24
                             2 2.26  25 2.31  37 2.80  18 2.80   9 2.81  33 2.84  13 2.94  28 2.97
   2  0.907  0.884  0.000-   9 1.61  39 1.93  16 2.06  31 2.07  28 2.08  40 2.16  18 2.21  21 2.24
                             1 2.26  26 2.31  38 2.80  17 2.80  10 2.81  34 2.84  14 2.94  27 2.97
   3  0.593  0.384  0.000-  12 1.61  38 1.93  13 2.06  30 2.07  25 2.08  37 2.16  19 2.21  24 2.24
                             4 2.26  27 2.31  39 2.80  20 2.80  11 2.81  35 2.84  15 2.94  26 2.97
   4  0.407  0.616  0.000-  11 1.61  37 1.93  14 2.06  29 2.07  26 2.08  38 2.16  20 2.21  23 2.24
                             3 2.26  28 2.31  40 2.80  19 2.80  12 2.81  36 2.84  16 2.94  25 2.97
   5  0.093  0.616  0.500-  14 1.61  36 1.93  11 2.06  28 2.07  31 2.08  35 2.16  21 2.21  18 2.24
                             6 2.26  29 2.31  33 2.80  22 2.80  13 2.81  37 2.84   9 2.94  32 2.97
   6  0.907  0.384  0.500-  13 1.61  35 1.93  12 2.06  27 2.07  32 2.08  36 2.16  22 2.21  17 2.24
                             5 2.26  30 2.31  34 2.80  21 2.80  14 2.81  38 2.84  10 2.94  31 2.97
   7  0.593  0.884  0.500-  16 1.61  34 1.93   9 2.06  26 2.07  29 2.08  33 2.16  23 2.21  20 2.24
                             8 2.26  31 2.31  35 2.80  24 2.80  15 2.81  39 2.84  11 2.94  30 2.97
   8  0.407  0.116  0.500-  15 1.61  33 1.93  10 2.06  25 2.07  30 2.08  34 2.16  24 2.21  19 2.24
                             7 2.26  32 2.31  36 2.80  23 2.80  16 2.81  40 2.84  12 2.94  29 2.97
   9  0.863  0.903  0.314-   2 1.61  18 1.82  34 1.85   7 2.06  26 2.12  31 2.28  28 2.33  17 2.33
                            10 2.43  35 2.61  21 2.65  39 2.70  27 2.74   1 2.81  23 2.90  33 2.92
  10  0.137  0.097  0.314-   1 1.61  17 1.82  33 1.85   8 2.06  25 2.12  32 2.28  27 2.33  18 2.33
                             9 2.43  36 2.61  22 2.65  40 2.70  28 2.74   2 2.81  24 2.90  34 2.92
  11  0.363  0.597  0.314-   4 1.61  20 1.82  36 1.85   5 2.06  28 2.12  29 2.28  26 2.33  19 2.33
                            12 2.43  33 2.61  23 2.65  37 2.70  25 2.74   3 2.81  21 2.90  35 2.92
  12  0.637  0.403  0.314-   3 1.61  19 1.82  35 1.85   6 2.06  27 2.12  30 2.28  25 2.33  20 2.33
                            11 2.43  34 2.61  24 2.65  38 2.70  26 2.74   4 2.81  22 2.90  36 2.92
  13  0.863  0.403  0.814-   6 1.61  22 1.82  38 1.85   3 2.06  30 2.12  27 2.28  32 2.33  21 2.33
                            14 2.43  39 2.61  17 2.65  35 2.70  31 2.74   5 2.81  19 2.90  37 2.92
  14  0.137  0.597  0.814-   5 1.61  21 1.82  37 1.85   4 2.06  29 2.12  28 2.28  31 2.33  22 2.33
                            13 2.43  40 2.61  18 2.65  36 2.70  32 2.74   6 2.81  20 2.90  38 2.92
  15  0.363  0.097  0.814-   8 1.61  24 1.82  40 1.85   1 2.06  32 2.12  25 2.28  30 2.33  23 2.33
                            16 2.43  37 2.61  19 2.65  33 2.70  29 2.74   7 2.81  17 2.90  39 2.92
  16  0.637  0.903  0.814-   7 1.61  23 1.82  39 1.85   2 2.06  31 2.12  26 2.28  29 2.33  24 2.33
                            15 2.43  38 2.61  20 2.65  34 2.70  30 2.74   8 2.81  18 2.90  40 2.92
  17  0.968  0.117  0.594-  32 1.78  10 1.82  39 1.88  18 1.94  34 2.07   1 2.21   6 2.24   9 2.33
                            30 2.39  27 2.43  13 2.65  40 2.73   2 2.80  15 2.90  33 2.95   8 3.02
  18  0.032  0.883  0.594-  31 1.78   9 1.82  40 1.88  17 1.94  33 2.07   2 2.21   5 2.24  10 2.33
                            29 2.39  28 2.43  14 2.65  39 2.73   1 2.80  16 2.90  34 2.95   7 3.02
  19  0.468  0.383  0.594-  30 1.78  12 1.82  37 1.88  20 1.94  36 2.07   3 2.21   8 2.24  11 2.33
                            32 2.39  25 2.43  15 2.65  38 2.73   4 2.80  13 2.90  35 2.95   6 3.02
  20  0.532  0.617  0.594-  29 1.78  11 1.82  38 1.88  19 1.94  35 2.07   4 2.21   7 2.24  12 2.33
                            31 2.39  26 2.43  16 2.65  37 2.73   3 2.80  14 2.90  36 2.95   5 3.02
  21  0.968  0.617  0.094-  28 1.78  14 1.82  35 1.88  22 1.94  38 2.07   5 2.21   2 2.24  13 2.33
                            26 2.39  31 2.43   9 2.65  36 2.73   6 2.80  11 2.90  37 2.95   4 3.02
  22  0.032  0.383  0.094-  27 1.78  13 1.82  36 1.88  21 1.94  37 2.07   6 2.21   1 2.24  14 2.33
                            25 2.39  32 2.43  10 2.65  35 2.73   5 2.80  12 2.90  38 2.95   3 3.02
  23  0.468  0.883  0.094-  26 1.78  16 1.82  33 1.88  24 1.94  40 2.07   7 2.21   4 2.24  15 2.33
                            28 2.39  29 2.43  11 2.65  34 2.73   8 2.80   9 2.90  39 2.95   2 3.02
  24  0.532  0.117  0.094-  25 1.78  15 1.82  34 1.88  23 1.94  39 2.07   8 2.21   3 2.24  16 2.33
                            27 2.39  30 2.43  12 2.65  33 2.73   7 2.80  10 2.90  40 2.95   1 3.02
  25  0.351  0.268  0.176-  24 1.78  36 1.81  37 1.94   8 2.07   3 2.08  10 2.12  15 2.28   1 2.31
                            12 2.33  22 2.39  19 2.43  11 2.74  32 2.86  32 2.86   4 2.97  34 3.01
  26  0.649  0.732  0.176-  23 1.78  35 1.81  38 1.94   7 2.07   4 2.08   9 2.12  16 2.28   2 2.31
                            11 2.33  21 2.39  20 2.43  12 2.74  31 2.86  31 2.86   3 2.97  33 3.01
  27  0.851  0.232  0.176-  22 1.78  34 1.81  39 1.94   6 2.07   1 2.08  12 2.12  13 2.28   3 2.31
                            10 2.33  24 2.39  17 2.43   9 2.74  30 2.86  30 2.86   2 2.97  36 3.01
  28  0.149  0.768  0.176-  21 1.78  33 1.81  40 1.94   5 2.07   2 2.08  11 2.12  14 2.28   4 2.31
                             9 2.33  23 2.39  18 2.43  10 2.74  29 2.86  29 2.86   1 2.97  35 3.01
  29  0.351  0.768  0.676-  20 1.78  40 1.81  33 1.94   4 2.07   7 2.08  14 2.12  11 2.28   5 2.31
                            16 2.33  18 2.39  23 2.43  15 2.74  28 2.86  28 2.86   8 2.97  38 3.01
  30  0.649  0.232  0.676-  19 1.78  39 1.81  34 1.94   3 2.07   8 2.08  13 2.12  12 2.28   6 2.31
                            15 2.33  17 2.39  24 2.43  16 2.74  27 2.86  27 2.86   7 2.97  37 3.01
  31  0.851  0.732  0.676-  18 1.78  38 1.81  35 1.94   2 2.07   5 2.08  16 2.12   9 2.28   7 2.31
                            14 2.33  20 2.39  21 2.43  13 2.74  26 2.86  26 2.86   6 2.97  40 3.01
  32  0.149  0.268  0.676-  17 1.78  37 1.81  36 1.94   1 2.07   6 2.08  15 2.12  10 2.28   8 2.31
                            13 2.33  19 2.39  22 2.43  14 2.74  25 2.86  25 2.86   5 2.97  39 3.01
  33  0.290  0.912  0.377-  28 1.81  10 1.85  23 1.88   8 1.93  29 1.94  18 2.07   7 2.16  40 2.57
                            40 2.57  11 2.61  15 2.70  24 2.73   5 2.80   1 2.84   9 2.92  17 2.95
  34  0.710  0.088  0.377-  27 1.81   9 1.85  24 1.88   7 1.93  30 1.94  17 2.07   8 2.16  39 2.57
                            39 2.57  12 2.61  16 2.70  23 2.73   6 2.80   2 2.84  10 2.92  18 2.95
  35  0.790  0.588  0.377-  26 1.81  12 1.85  21 1.88   6 1.93  31 1.94  20 2.07   5 2.16  38 2.57
                            38 2.57   9 2.61  13 2.70  22 2.73   7 2.80   3 2.84  11 2.92  19 2.95
  36  0.210  0.412  0.377-  25 1.81  11 1.85  22 1.88   5 1.93  32 1.94  19 2.07   6 2.16  37 2.57
                            37 2.57  10 2.61  14 2.70  21 2.73   8 2.80   4 2.84  12 2.92  20 2.95
  37  0.290  0.412  0.877-  32 1.81  14 1.85  19 1.88   4 1.93  25 1.94  22 2.07   3 2.16  36 2.57
                            36 2.57  15 2.61  11 2.70  20 2.73   1 2.80   5 2.84  13 2.92  21 2.95
  38  0.710  0.588  0.877-  31 1.81  13 1.85  20 1.88   3 1.93  26 1.94  21 2.07   4 2.16  35 2.57
                            35 2.57  16 2.61  12 2.70  19 2.73   2 2.80   6 2.84  14 2.92  22 2.95
  39  0.790  0.088  0.877-  30 1.81  16 1.85  17 1.88   2 1.93  27 1.94  24 2.07   1 2.16  34 2.57
                            34 2.57  13 2.61   9 2.70  18 2.73   3 2.80   7 2.84  15 2.92  23 2.95
  40  0.210  0.912  0.877-  29 1.81  15 1.85  18 1.88   1 1.93  28 1.94  23 2.07   2 2.16  33 2.57
                            33 2.57  14 2.61  10 2.70  17 2.73   4 2.80   8 2.84  16 2.92  24 2.95
 

 ----------------------------------------------------------------------------- 
|                                                                             |
|           W    W    AA    RRRRR   N    N  II  N    N   GGGG   !!!           |
|           W    W   A  A   R    R  NN   N  II  NN   N  G    G  !!!           |
|           W    W  A    A  R    R  N N  N  II  N N  N  G       !!!           |
|           W WW W  AAAAAA  RRRRR   N  N N  II  N  N N  G  GGG   !            |
|           WW  WW  A    A  R   R   N   NN  II  N   NN  G    G                |
|           W    W  A    A  R    R  N    N  II  N    N   GGGG   !!!           |
|                                                                             |
|      The distance between some ions is very small                           |
|      please check the nearest neigbor list in the OUTCAR file               |
|          I HOPE YOU KNOW, WHAT YOU ARE  DOING                               |
|                                                                             |
 ----------------------------------------------------------------------------- 

  LATTYP: Found a simple orthorhombic cell.
 ALAT       =     5.0141000748
 B/A-ratio  =     1.3539019698
 C/A-ratio  =     1.6079056007
  
  Lattice vectors:
  
 A1 = (   0.0000000000,   0.0000000000,   5.0141000748)
 A2 = (  -6.7885999680,   0.0000000000,   0.0000000000)
 A3 = (   0.0000000000,  -8.0621995926,   0.0000000000)


Analysis of symmetry for initial positions (statically):
=====================================================================
 Subroutine PRICEL returns following result:
 
  LATTYP: Found a base centered orthorhombic cell.
 ALAT       =     5.0141000748
 B/A-ratio  =     1.6079056746
 C/A-ratio  =     1.3539019698
  
  Lattice vectors:
  
 A1 = (   0.0000000000,   4.0310999817,  -2.5070504586)
 A2 = (   0.0000000000,  -4.0310999817,  -2.5070496162)
 A3 = (  -6.7885999680,   0.0000000000,   0.0000000000)
 
   2 primitive cells build up your supercell.
 

 Routine SETGRP: Setting up the symmetry group for a 
 simple orthorhombic supercell.


 Subroutine GETGRP returns: Found  4 space group operations
 (whereof  2 operations were pure point group operations)
 out of a pool of  8 trial point group operations.


The static configuration has the point symmetry C_2 .
 The point group associated with its full space group is C_2v.


Analysis of symmetry for dynamics (positions and initial velocities):
=====================================================================
 Subroutine PRICEL returns following result:
 
  LATTYP: Found a base centered orthorhombic cell.
 ALAT       =     5.0141000748
 B/A-ratio  =     1.6079056746
 C/A-ratio  =     1.3539019698
  
  Lattice vectors:
  
 A1 = (   0.0000000000,   4.0310999817,  -2.5070504586)
 A2 = (   0.0000000000,  -4.0310999817,  -2.5070496162)
 A3 = (  -6.7885999680,   0.0000000000,   0.0000000000)
 
   2 primitive cells build up your supercell.
 

 Routine SETGRP: Setting up the symmetry group for a 
 simple orthorhombic supercell.


 Subroutine GETGRP returns: Found  4 space group operations
 (whereof  2 operations were pure point group operations)
 out of a pool of  8 trial point group operations.


The dynamic configuration has the point symmetry C_2 .
 The point group associated with its full space group is C_2v.


 Subroutine INISYM returns: Found  4 space group operations
 (whereof  2 operations are pure point group operations),
 and found     2 'primitive' translations

 
 
 KPOINTS: K-Mesh Generated with KP-Resolved Value 

Automatic generation of k-mesh.
Space group operators:
 irot       det(A)        alpha          n_x          n_y          n_z        tau_x        tau_y        tau_z
    1     1.000000     0.000000     1.000000     0.000000     0.000000    -0.000000     0.000000    -0.000000
    2     1.000000   180.000000     0.000000     0.000000     1.000000    -0.000000     0.000000    -0.000000
    3    -1.000000   180.000000     0.000000     1.000000     0.000000    -0.500000     0.000000    -0.500000
    4    -1.000000   180.000000     1.000000     0.000000     0.000000    -0.500000     0.000000    -0.500000
 
 Subroutine IBZKPT returns following result:
 ===========================================
 
 Found     60 irreducible k-points:
 
 Following reciprocal coordinates:
            Coordinates               Weight
  0.000000  0.083333  0.050000      4.000000
  0.142857  0.083333  0.050000      8.000000
  0.285714  0.083333  0.050000      8.000000
  0.428571  0.083333  0.050000      8.000000
  0.000000  0.250000  0.050000      4.000000
  0.142857  0.250000  0.050000      8.000000
  0.285714  0.250000  0.050000      8.000000
  0.428571  0.250000  0.050000      8.000000
  0.000000  0.416667  0.050000      4.000000
  0.142857  0.416667  0.050000      8.000000
  0.285714  0.416667  0.050000      8.000000
  0.428571  0.416667  0.050000      8.000000
  0.000000  0.083333  0.150000      4.000000
  0.142857  0.083333  0.150000      8.000000
  0.285714  0.083333  0.150000      8.000000
  0.428571  0.083333  0.150000      8.000000
  0.000000  0.250000  0.150000      4.000000
  0.142857  0.250000  0.150000      8.000000
  0.285714  0.250000  0.150000      8.000000
  0.428571  0.250000  0.150000      8.000000
  0.000000  0.416667  0.150000      4.000000
  0.142857  0.416667  0.150000      8.000000
  0.285714  0.416667  0.150000      8.000000
  0.428571  0.416667  0.150000      8.000000
  0.000000  0.083333  0.250000      4.000000
  0.142857  0.083333  0.250000      8.000000
  0.285714  0.083333  0.250000      8.000000
  0.428571  0.083333  0.250000      8.000000
  0.000000  0.250000  0.250000      4.000000
  0.142857  0.250000  0.250000      8.000000
  0.285714  0.250000  0.250000      8.000000
  0.428571  0.250000  0.250000      8.000000
  0.000000  0.416667  0.250000      4.000000
  0.142857  0.416667  0.250000      8.000000
  0.285714  0.416667  0.250000      8.000000
  0.428571  0.416667  0.250000      8.000000
  0.000000  0.083333  0.350000      4.000000
  0.142857  0.083333  0.350000      8.000000
  0.285714  0.083333  0.350000      8.000000
  0.428571  0.083333  0.350000      8.000000
  0.000000  0.250000  0.350000      4.000000
  0.142857  0.250000  0.350000      8.000000
  0.285714  0.250000  0.350000      8.000000
  0.428571  0.250000  0.350000      8.000000
  0.000000  0.416667  0.350000      4.000000
  0.142857  0.416667  0.350000      8.000000
  0.285714  0.416667  0.350000      8.000000
  0.428571  0.416667  0.350000      8.000000
  0.000000  0.083333  0.450000      4.000000
  0.142857  0.083333  0.450000      8.000000
  0.285714  0.083333  0.450000      8.000000
  0.428571  0.083333  0.450000      8.000000
  0.000000  0.250000  0.450000      4.000000
  0.142857  0.250000  0.450000      8.000000
  0.285714  0.250000  0.450000      8.000000
  0.428571  0.250000  0.450000      8.000000
  0.000000  0.416667  0.450000      4.000000
  0.142857  0.416667  0.450000      8.000000
  0.285714  0.416667  0.450000      8.000000
  0.428571  0.416667  0.450000      8.000000
 
 Following cartesian coordinates:
            Coordinates               Weight
  0.000000  0.010336  0.009972      4.000000
  0.021044  0.010336  0.009972      8.000000
  0.042087  0.010336  0.009972      8.000000
  0.063131  0.010336  0.009972      8.000000
  0.000000  0.031009  0.009972      4.000000
  0.021044  0.031009  0.009972      8.000000
  0.042087  0.031009  0.009972      8.000000
  0.063131  0.031009  0.009972      8.000000
  0.000000  0.051682  0.009972      4.000000
  0.021044  0.051682  0.009972      8.000000
  0.042087  0.051682  0.009972      8.000000
  0.063131  0.051682  0.009972      8.000000
  0.000000  0.010336  0.029916      4.000000
  0.021044  0.010336  0.029916      8.000000
  0.042087  0.010336  0.029916      8.000000
  0.063131  0.010336  0.029916      8.000000
  0.000000  0.031009  0.029916      4.000000
  0.021044  0.031009  0.029916      8.000000
  0.042087  0.031009  0.029916      8.000000
  0.063131  0.031009  0.029916      8.000000
  0.000000  0.051682  0.029916      4.000000
  0.021044  0.051682  0.029916      8.000000
  0.042087  0.051682  0.029916      8.000000
  0.063131  0.051682  0.029916      8.000000
  0.000000  0.010336  0.049859      4.000000
  0.021044  0.010336  0.049859      8.000000
  0.042087  0.010336  0.049859      8.000000
  0.063131  0.010336  0.049859      8.000000
  0.000000  0.031009  0.049859      4.000000
  0.021044  0.031009  0.049859      8.000000
  0.042087  0.031009  0.049859      8.000000
  0.063131  0.031009  0.049859      8.000000
  0.000000  0.051682  0.049859      4.000000
  0.021044  0.051682  0.049859      8.000000
  0.042087  0.051682  0.049859      8.000000
  0.063131  0.051682  0.049859      8.000000
  0.000000  0.010336  0.069803      4.000000
  0.021044  0.010336  0.069803      8.000000
  0.042087  0.010336  0.069803      8.000000
  0.063131  0.010336  0.069803      8.000000
  0.000000  0.031009  0.069803      4.000000
  0.021044  0.031009  0.069803      8.000000
  0.042087  0.031009  0.069803      8.000000
  0.063131  0.031009  0.069803      8.000000
  0.000000  0.051682  0.069803      4.000000
  0.021044  0.051682  0.069803      8.000000
  0.042087  0.051682  0.069803      8.000000
  0.063131  0.051682  0.069803      8.000000
  0.000000  0.010336  0.089747      4.000000
  0.021044  0.010336  0.089747      8.000000
  0.042087  0.010336  0.089747      8.000000
  0.063131  0.010336  0.089747      8.000000
  0.000000  0.031009  0.089747      4.000000
  0.021044  0.031009  0.089747      8.000000
  0.042087  0.031009  0.089747      8.000000
  0.063131  0.031009  0.089747      8.000000
  0.000000  0.051682  0.089747      4.000000
  0.021044  0.051682  0.089747      8.000000
  0.042087  0.051682  0.089747      8.000000
  0.063131  0.051682  0.089747      8.000000
 


--------------------------------------------------------------------------------------------------------




 Dimension of arrays:
   k-points           NKPTS =     60   k-points in BZ     NKDIM =     60   number of bands    NBANDS=     44
   number of dos      NEDOS =    301   number of ions     NIONS =     40
   non local maximal  LDIM  =      3   non local SUM 2l+1 LMDIM =      5
   total plane-waves  NPLWV =  67200
   max r-space proj   IRMAX =      1   max aug-charges    IRDMAX=   8034
   dimension x,y,z NGX =    42 NGY =   50 NGZ =   32
   dimension x,y,z NGXF=    84 NGYF=  100 NGZF=   64
   support grid    NGXF=    84 NGYF=  100 NGZF=   64
   ions per type =              40
 NGX,Y,Z   is equivalent  to a cutoff of  10.29, 10.31, 10.61 a.u.
 NGXF,Y,Z  is equivalent  to a cutoff of  20.57, 20.62, 21.22 a.u.


 I would recommend the setting:
   dimension x,y,z NGX =    42 NGY =   50 NGZ =   31
 SYSTEM =  unknown system                          
 POSCAR =  Li40                                    

 Startparameter for this run:
   NWRITE =      1    write-flag & timer
   PREC   = normal    normal or accurate (medium, high low for compatibility)
   ISTART =      0    job   : 0-new  1-cont  2-samecut
   ICHARG =      2    charge: 1-file 2-atom 10-const
   ISPIN  =      1    spin polarized calculation?
   LNONCOLLINEAR =      F non collinear calculations
   LSORBIT =      F    spin-orbit coupling
   INIWAV =      1    electr: 0-lowe 1-rand  2-diag
   LASPH  =      F    aspherical Exc in radial PAW
   METAGGA=      F    non-selfconsistent MetaGGA calc.

 Electronic Relaxation 1
   ENCUT  =  650.0 eV  47.77 Ry    6.91 a.u.  14.11 16.76 10.42*2*pi/ulx,y,z
   ENINI  =  650.0     initial cutoff
   ENAUG  =  331.6 eV  augmentation charge cutoff
   NELM   =    200;   NELMIN=  6; NELMDL= -5     # of ELM steps 
   EDIFF  = 0.1E-05   stopping-criterion for ELM
   LREAL  =      F    real-space projection
   NLSPLINE    = F    spline interpolate recip. space projectors
   LCOMPAT=      F    compatible to vasp.4.4
   GGA_COMPAT  = T    GGA compatible to vasp.4.4-vasp.4.6
   LMAXPAW     = -100 max onsite density
   LMAXMIX     =    2 max onsite mixed and CHGCAR
   VOSKOWN=      0    Vosko Wilk Nusair interpolation
   ROPT   =    0.00000
 Ionic relaxation
   EDIFFG = -.1E-01   stopping-criterion for IOM
   NSW    =    200    number of steps for IOM
   NBLOCK =      1;   KBLOCK =    200    inner block; outer block 
   IBRION =      2    ionic relax: 0-MD 1-quasi-New 2-CG
   NFREE  =      1    steps in history (QN), initial steepest desc. (CG)
   ISIF   =      3    stress and relaxation
   IWAVPR =     11    prediction:  0-non 1-charg 2-wave 3-comb
   ISYM   =      2    0-nonsym 1-usesym 2-fastsym
   LCORR  =      T    Harris-Foulkes like correction to forces

   POTIM  = 0.6000    time-step for ionic-motion
   TEIN   =    0.0    initial temperature
   TEBEG  =    0.0;   TEEND  =   0.0 temperature during run
   SMASS  =  -3.00    Nose mass-parameter (am)
   estimated Nose-frequenzy (Omega)   =  0.10E-29 period in steps =****** mass=  -0.105E-26a.u.
   SCALEE = 1.0000    scale energy and forces
   NPACO  =    256;   APACO  = 16.0  distance and # of slots for P.C.
   PSTRESS=  700.0 pullay stress

  Mass of Ions in am
   POMASS =   7.01
  Ionic Valenz
   ZVAL   =   1.00
  Atomic Wigner-Seitz radii
   RWIGS  =  -1.00
  virtual crystal weights 
   VCA    =   1.00
   NELECT =      40.0000    total number of electrons
   NUPDOWN=      -1.0000    fix difference up-down

 DOS related values:
   EMIN   =  10.00;   EMAX   =-10.00  energy-range for DOS
   EFERMI =   0.00
   ISMEAR =     1;   SIGMA  =   0.20  broadening in eV -4-tet -1-fermi 0-gaus

 Electronic relaxation 2 (details)
   IALGO  =     38    algorithm
   LDIAG  =      T    sub-space diagonalisation (order eigenvalues)
   LSUBROT=      F    optimize rotation matrix (better conditioning)
   TURBO    =      0    0=normal 1=particle mesh
   IRESTART =      0    0=no restart 2=restart with 2 vectors
   NREBOOT  =      0    no. of reboots
   NMIN     =      0    reboot dimension
   EREF     =   0.00    reference energy to select bands
   IMIX   =      4    mixing-type and parameters
     AMIX     =   0.40;   BMIX     =  1.00
     AMIX_MAG =   1.60;   BMIX_MAG =  1.00
     AMIN     =   0.10
     WC   =   100.;   INIMIX=   1;  MIXPRE=   1;  MAXMIX= -45

 Intra band minimization:
   WEIMIN = 0.0010     energy-eigenvalue tresh-hold
   EBREAK =  0.57E-08  absolut break condition
   DEPER  =   0.30     relativ break condition  

   TIME   =   0.40     timestep for ELM

  volume/ion in A,a.u.               =       6.86        46.30
  Fermi-wavevector in a.u.,A,eV,Ry     =   0.861561  1.628114 10.099427  0.742287
  Thomas-Fermi vector in A             =   1.979233
 
 Write flags
   LWAVE  =      F    write WAVECAR
   LCHARG =      F    write CHGCAR
   LVTOT  =      F    write LOCPOT, total local potential
   LVHAR  =      F    write LOCPOT, Hartree potential only
   LELF   =      F    write electronic localiz. function (ELF)
   LORBIT =      0    0 simple, 1 ext, 2 COOP (PROOUT)


 Dipole corrections
   LMONO  =      F    monopole corrections only (constant potential shift)
   LDIPOL =      F    correct potential (dipole corrections)
   IDIPOL =      0    1-x, 2-y, 3-z, 4-all directions 
   EPSILON=  1.0000000 bulk dielectric constant

 Exchange correlation treatment:
   GGA     =    --    GGA type
   LEXCH   =     8    internal setting for exchange type
   VOSKOWN=      0    Vosko Wilk Nusair interpolation
   LHFCALC =     F    Hartree Fock is set to
   LHFONE  =     F    Hartree Fock one center treatment
   AEXX    =    0.0000 exact exchange contribution

 Linear response parameters
   LEPSILON=     F    determine dielectric tensor
   LRPA    =     F    only Hartree local field effects (RPA)
   LNABLA  =     F    use nabla operator in PAW spheres
   LVEL    =     F    velocity operator in full k-point grid
   LINTERFAST=   F  fast interpolation
   KINTER  =     0    interpolate to denser k-point grid
   CSHIFT  =0.1000    complex shift for real part using Kramers Kronig
   OMEGAMAX=  -1.0    maximum frequency
   DEG_THRESHOLD= 0.2000000E-02 threshold for treating states as degnerate
   RTIME   =    0.100 relaxation time in fs

 Orbital magnetization related:
   ORBITALMAG=     F  switch on orbital magnetization
   LCHIMAG   =     F  perturbation theory with respect to B field
   DQ        =  0.001000  dq finite difference perturbation B field



--------------------------------------------------------------------------------------------------------


 conjugate gradient relaxation of ions
 charge density and potential will be updated during run
 non-spin polarized calculation
 Variant of blocked Davidson
 Davidson routine will perform the subspace rotation
 perform sub-space diagonalisation
    after iterative eigenvector-optimisation
 modified Broyden-mixing scheme, WC =      100.0
 initial mixing is a Kerker type mixing with AMIX =  0.4000 and BMIX =      1.0000
 Hartree-type preconditioning will be used
 using additional bands           24
 reciprocal scheme for non local part
 use partial core corrections
 calculate Harris-corrections to forces 
   (improved forces if not selfconsistent)
 use gradient corrections 
 use of overlap-Matrix (Vanderbilt PP)
 Methfessel and Paxton  Order N= 1 SIGMA  =   0.20


--------------------------------------------------------------------------------------------------------


  energy-cutoff  :      650.00
  volume of cell :      274.43
      direct lattice vectors                 reciprocal lattice vectors
     6.788599968  0.000000000  0.000000000     0.147305778  0.000000000  0.000000000
     0.000000000  8.062199593  0.000000000     0.000000000  0.124035629  0.000000000
     0.000000000  0.000000000  5.014100075     0.000000000  0.000000000  0.199437583

  length of vectors
     6.788599968  8.062199593  5.014100075     0.147305778  0.124035629  0.199437583


 
 k-points in units of 2pi/SCALE and weight: K-Mesh Generated with KP-Resolved Value 
   0.00000000  0.01033630  0.00997188       0.010
   0.02104368  0.01033630  0.00997188       0.019
   0.04208737  0.01033630  0.00997188       0.019
   0.06313105  0.01033630  0.00997188       0.019
   0.00000000  0.03100891  0.00997188       0.010
   0.02104368  0.03100891  0.00997188       0.019
   0.04208737  0.03100891  0.00997188       0.019
   0.06313105  0.03100891  0.00997188       0.019
   0.00000000  0.05168151  0.00997188       0.010
   0.02104368  0.05168151  0.00997188       0.019
   0.04208737  0.05168151  0.00997188       0.019
   0.06313105  0.05168151  0.00997188       0.019
   0.00000000  0.01033630  0.02991564       0.010
   0.02104368  0.01033630  0.02991564       0.019
   0.04208737  0.01033630  0.02991564       0.019
   0.06313105  0.01033630  0.02991564       0.019
   0.00000000  0.03100891  0.02991564       0.010
   0.02104368  0.03100891  0.02991564       0.019
   0.04208737  0.03100891  0.02991564       0.019
   0.06313105  0.03100891  0.02991564       0.019
   0.00000000  0.05168151  0.02991564       0.010
   0.02104368  0.05168151  0.02991564       0.019
   0.04208737  0.05168151  0.02991564       0.019
   0.06313105  0.05168151  0.02991564       0.019
   0.00000000  0.01033630  0.04985940       0.010
   0.02104368  0.01033630  0.04985940       0.019
   0.04208737  0.01033630  0.04985940       0.019
   0.06313105  0.01033630  0.04985940       0.019
   0.00000000  0.03100891  0.04985940       0.010
   0.02104368  0.03100891  0.04985940       0.019
   0.04208737  0.03100891  0.04985940       0.019
   0.06313105  0.03100891  0.04985940       0.019
   0.00000000  0.05168151  0.04985940       0.010
   0.02104368  0.05168151  0.04985940       0.019
   0.04208737  0.05168151  0.04985940       0.019
   0.06313105  0.05168151  0.04985940       0.019
   0.00000000  0.01033630  0.06980315       0.010
   0.02104368  0.01033630  0.06980315       0.019
   0.04208737  0.01033630  0.06980315       0.019
   0.06313105  0.01033630  0.06980315       0.019
   0.00000000  0.03100891  0.06980315       0.010
   0.02104368  0.03100891  0.06980315       0.019
   0.04208737  0.03100891  0.06980315       0.019
   0.06313105  0.03100891  0.06980315       0.019
   0.00000000  0.05168151  0.06980315       0.010
   0.02104368  0.05168151  0.06980315       0.019
   0.04208737  0.05168151  0.06980315       0.019
   0.06313105  0.05168151  0.06980315       0.019
   0.00000000  0.01033630  0.08974691       0.010
   0.02104368  0.01033630  0.08974691       0.019
   0.04208737  0.01033630  0.08974691       0.019
   0.06313105  0.01033630  0.08974691       0.019
   0.00000000  0.03100891  0.08974691       0.010
   0.02104368  0.03100891  0.08974691       0.019
   0.04208737  0.03100891  0.08974691       0.019
   0.06313105  0.03100891  0.08974691       0.019
   0.00000000  0.05168151  0.08974691       0.010
   0.02104368  0.05168151  0.08974691       0.019
   0.04208737  0.05168151  0.08974691       0.019
   0.06313105  0.05168151  0.08974691       0.019
 
 k-points in reciprocal lattice and weights: K-Mesh Generated with KP-Resolved Value 
   0.00000000  0.08333333  0.05000000       0.010
   0.14285714  0.08333333  0.05000000       0.019
   0.28571429  0.08333333  0.05000000       0.019
   0.42857143  0.08333333  0.05000000       0.019
   0.00000000  0.25000000  0.05000000       0.010
   0.14285714  0.25000000  0.05000000       0.019
   0.28571429  0.25000000  0.05000000       0.019
   0.42857143  0.25000000  0.05000000       0.019
   0.00000000  0.41666667  0.05000000       0.010
   0.14285714  0.41666667  0.05000000       0.019
   0.28571429  0.41666667  0.05000000       0.019
   0.42857143  0.41666667  0.05000000       0.019
   0.00000000  0.08333333  0.15000000       0.010
   0.14285714  0.08333333  0.15000000       0.019
   0.28571429  0.08333333  0.15000000       0.019
   0.42857143  0.08333333  0.15000000       0.019
   0.00000000  0.25000000  0.15000000       0.010
   0.14285714  0.25000000  0.15000000       0.019
   0.28571429  0.25000000  0.15000000       0.019
   0.42857143  0.25000000  0.15000000       0.019
   0.00000000  0.41666667  0.15000000       0.010
   0.14285714  0.41666667  0.15000000       0.019
   0.28571429  0.41666667  0.15000000       0.019
   0.42857143  0.41666667  0.15000000       0.019
   0.00000000  0.08333333  0.25000000       0.010
   0.14285714  0.08333333  0.25000000       0.019
   0.28571429  0.08333333  0.25000000       0.019
   0.42857143  0.08333333  0.25000000       0.019
   0.00000000  0.25000000  0.25000000       0.010
   0.14285714  0.25000000  0.25000000       0.019
   0.28571429  0.25000000  0.25000000       0.019
   0.42857143  0.25000000  0.25000000       0.019
   0.00000000  0.41666667  0.25000000       0.010
   0.14285714  0.41666667  0.25000000       0.019
   0.28571429  0.41666667  0.25000000       0.019
   0.42857143  0.41666667  0.25000000       0.019
   0.00000000  0.08333333  0.35000000       0.010
   0.14285714  0.08333333  0.35000000       0.019
   0.28571429  0.08333333  0.35000000       0.019
   0.42857143  0.08333333  0.35000000       0.019
   0.00000000  0.25000000  0.35000000       0.010
   0.14285714  0.25000000  0.35000000       0.019
   0.28571429  0.25000000  0.35000000       0.019
   0.42857143  0.25000000  0.35000000       0.019
   0.00000000  0.41666667  0.35000000       0.010
   0.14285714  0.41666667  0.35000000       0.019
   0.28571429  0.41666667  0.35000000       0.019
   0.42857143  0.41666667  0.35000000       0.019
   0.00000000  0.08333333  0.45000000       0.010
   0.14285714  0.08333333  0.45000000       0.019
   0.28571429  0.08333333  0.45000000       0.019
   0.42857143  0.08333333  0.45000000       0.019
   0.00000000  0.25000000  0.45000000       0.010
   0.14285714  0.25000000  0.45000000       0.019
   0.28571429  0.25000000  0.45000000       0.019
   0.42857143  0.25000000  0.45000000       0.019
   0.00000000  0.41666667  0.45000000       0.010
   0.14285714  0.41666667  0.45000000       0.019
   0.28571429  0.41666667  0.45000000       0.019
   0.42857143  0.41666667  0.45000000       0.019
 
 position of ions in fractional coordinates (direct lattice) 
   0.09314000  0.11631000  0.00000000
   0.90685998  0.88368998  0.00000000
   0.59314002  0.38369001  0.00000000
   0.40686001  0.61631002  0.00000000
   0.09314000  0.61631002  0.50000000
   0.90685998  0.38369001  0.50000000
   0.59314002  0.88368998  0.50000000
   0.40686001  0.11631000  0.50000000
   0.86299996  0.90313999  0.31378999
   0.13700002  0.09686000  0.31378999
   0.36299993  0.59686001  0.31378999
   0.63700004  0.40314001  0.31378999
   0.86299996  0.40314001  0.81378996
   0.13700002  0.59686001  0.81378996
   0.36299993  0.09686000  0.81378996
   0.63700004  0.90313999  0.81378996
   0.96783003  0.11691001  0.59407004
   0.03217000  0.88309002  0.59407004
   0.46782993  0.38308999  0.59407004
   0.53217000  0.61690998  0.59407004
   0.96783003  0.61690998  0.09406996
   0.03217000  0.38308999  0.09406996
   0.46782993  0.88309002  0.09406996
   0.53217000  0.11691001  0.09406996
   0.35129000  0.26808000  0.17587000
   0.64871003  0.73192000  0.17587000
   0.85128997  0.23192000  0.17587000
   0.14871002  0.76808000  0.17587000
   0.35129000  0.76808000  0.67586999
   0.64871003  0.23192000  0.67586999
   0.85128997  0.73192000  0.67586999
   0.14871002  0.26808000  0.67586999
   0.29006999  0.91185000  0.37705001
   0.70993001  0.08815000  0.37705001
   0.79006999  0.58815000  0.37705001
   0.20993001  0.41185000  0.37705001
   0.29006999  0.41185000  0.87705008
   0.70993001  0.58815000  0.87705008
   0.79006999  0.08815000  0.87705008
   0.20993001  0.91185000  0.87705008
 
 position of ions in cartesian coordinates  (Angst):
   0.63229019  0.93771446  0.00000000
   6.15630960  7.12448501  0.00000000
   4.02659035  3.09338546  0.00000000
   2.76200986  4.96881438  0.00000000
   0.63229019  4.96881438  2.50705004
   6.15630960  3.09338546  2.50705004
   4.02659035  7.12448501  2.50705004
   2.76200986  0.93771446  2.50705004
   5.85856151  7.28129482  1.57337439
   0.93003833  0.78090465  1.57337439
   2.46426129  4.81200457  1.57337439
   4.32433844  3.25019526  1.57337439
   5.85856151  3.25019526  4.08042431
   0.93003833  4.81200457  4.08042431
   2.46426129  0.78090465  4.08042431
   4.32433844  7.28129482  4.08042431
   6.57021093  0.94255179  2.97872663
   0.21838924  7.11964798  2.97872663
   3.17591023  3.08854795  2.97872663
   3.61268926  4.97365141  2.97872663
   6.57021093  4.97365141  0.47167617
   0.21838924  3.08854795  0.47167617
   3.17591023  7.11964798  0.47167617
   3.61268926  0.94255179  0.47167617
   2.38476730  2.16131449  0.88182980
   4.40383291  5.90088510  0.88182980
   5.77906704  1.86978531  0.88182980
   1.00953281  6.19241429  0.88182980
   2.38476730  6.19241429  3.38887978
   4.40383291  1.86978531  3.38887978
   5.77906704  5.90088510  3.38887978
   1.00953281  2.16131449  3.38887978
   1.96916914  7.35151672  1.89056647
   4.81943083  0.71068293  1.89056647
   5.36346912  4.74178267  1.89056647
   1.42513085  3.32041693  1.89056647
   1.96916914  3.32041693  4.39761686
   4.81943083  4.74178267  4.39761686
   5.36346912  0.71068293  4.39761686
   1.42513085  7.35151672  4.39761686
 


--------------------------------------------------------------------------------------------------------


 k-point  1 :   0.0000 0.0833 0.0500  plane waves:   10328
 k-point  2 :   0.1429 0.0833 0.0500  plane waves:   10329
 k-point  3 :   0.2857 0.0833 0.0500  plane waves:   10343
 k-point  4 :   0.4286 0.0833 0.0500  plane waves:   10347
 k-point  5 :   0.0000 0.2500 0.0500  plane waves:   10357
 k-point  6 :   0.1429 0.2500 0.0500  plane waves:   10339
 k-point  7 :   0.2857 0.2500 0.0500  plane waves:   10331
 k-point  8 :   0.4286 0.2500 0.0500  plane waves:   10326
 k-point  9 :   0.0000 0.4167 0.0500  plane waves:   10328
 k-point 10 :   0.1429 0.4167 0.0500  plane waves:   10344
 k-point 11 :   0.2857 0.4167 0.0500  plane waves:   10341
 k-point 12 :   0.4286 0.4167 0.0500  plane waves:   10333
 k-point 13 :   0.0000 0.0833 0.1500  plane waves:   10336
 k-point 14 :   0.1429 0.0833 0.1500  plane waves:   10331
 k-point 15 :   0.2857 0.0833 0.1500  plane waves:   10328
 k-point 16 :   0.4286 0.0833 0.1500  plane waves:   10334
 k-point 17 :   0.0000 0.2500 0.1500  plane waves:   10343
 k-point 18 :   0.1429 0.2500 0.1500  plane waves:   10327
 k-point 19 :   0.2857 0.2500 0.1500  plane waves:   10330
 k-point 20 :   0.4286 0.2500 0.1500  plane waves:   10341
 k-point 21 :   0.0000 0.4167 0.1500  plane waves:   10336
 k-point 22 :   0.1429 0.4167 0.1500  plane waves:   10337
 k-point 23 :   0.2857 0.4167 0.1500  plane waves:   10343
 k-point 24 :   0.4286 0.4167 0.1500  plane waves:   10333
 k-point 25 :   0.0000 0.0833 0.2500  plane waves:   10319
 k-point 26 :   0.1429 0.0833 0.2500  plane waves:   10325
 k-point 27 :   0.2857 0.0833 0.2500  plane waves:   10329
 k-point 28 :   0.4286 0.0833 0.2500  plane waves:   10334
 k-point 29 :   0.0000 0.2500 0.2500  plane waves:   10325
 k-point 30 :   0.1429 0.2500 0.2500  plane waves:   10322
 k-point 31 :   0.2857 0.2500 0.2500  plane waves:   10331
 k-point 32 :   0.4286 0.2500 0.2500  plane waves:   10331
 k-point 33 :   0.0000 0.4167 0.2500  plane waves:   10340
 k-point 34 :   0.1429 0.4167 0.2500  plane waves:   10329
 k-point 35 :   0.2857 0.4167 0.2500  plane waves:   10325
 k-point 36 :   0.4286 0.4167 0.2500  plane waves:   10327
 k-point 37 :   0.0000 0.0833 0.3500  plane waves:   10306
 k-point 38 :   0.1429 0.0833 0.3500  plane waves:   10306
 k-point 39 :   0.2857 0.0833 0.3500  plane waves:   10328
 k-point 40 :   0.4286 0.0833 0.3500  plane waves:   10328
 k-point 41 :   0.0000 0.2500 0.3500  plane waves:   10311
 k-point 42 :   0.1429 0.2500 0.3500  plane waves:   10316
 k-point 43 :   0.2857 0.2500 0.3500  plane waves:   10314
 k-point 44 :   0.4286 0.2500 0.3500  plane waves:   10330
 k-point 45 :   0.0000 0.4167 0.3500  plane waves:   10307
 k-point 46 :   0.1429 0.4167 0.3500  plane waves:   10316
 k-point 47 :   0.2857 0.4167 0.3500  plane waves:   10318
 k-point 48 :   0.4286 0.4167 0.3500  plane waves:   10334
 k-point 49 :   0.0000 0.0833 0.4500  plane waves:   10285
 k-point 50 :   0.1429 0.0833 0.4500  plane waves:   10305
 k-point 51 :   0.2857 0.0833 0.4500  plane waves:   10314
 k-point 52 :   0.4286 0.0833 0.4500  plane waves:   10328
 k-point 53 :   0.0000 0.2500 0.4500  plane waves:   10279
 k-point 54 :   0.1429 0.2500 0.4500  plane waves:   10282
 k-point 55 :   0.2857 0.2500 0.4500  plane waves:   10317
 k-point 56 :   0.4286 0.2500 0.4500  plane waves:   10316
 k-point 57 :   0.0000 0.4167 0.4500  plane waves:   10306
 k-point 58 :   0.1429 0.4167 0.4500  plane waves:   10314
 k-point 59 :   0.2857 0.4167 0.4500  plane waves:   10301
 k-point 60 :   0.4286 0.4167 0.4500  plane waves:   10336

 maximum and minimum number of plane-waves per node :      1056     1007

 maximum number of plane-waves:     10357
 maximum index in each direction: 
   IXMAX=   14   IYMAX=   16   IZMAX=   10
   IXMIN=  -14   IYMIN=  -17   IZMIN=  -10

 WARNING: aliasing errors must be expected set NGX to  58 to avoid them
 WARNING: aliasing errors must be expected set NGY to  68 to avoid them
 WARNING: aliasing errors must be expected set NGZ to  42 to avoid them
 aliasing errors are usually negligible using standard VASP settings
 and one can safely disregard these warnings

 parallel 3D FFT for wavefunctions:
    minimum data exchange during FFTs selected (reduces bandwidth)
 parallel 3D FFT for charge:
    minimum data exchange during FFTs selected (reduces bandwidth)


 total amount of memory used by VASP on root node    46714. kBytes
========================================================================

   base      :      30000. kBytes
   nonl-proj :       3210. kBytes
   fftplans  :        874. kBytes
   grid      :       1264. kBytes
   one-center:          4. kBytes
   wavefun   :      11362. kBytes
 
     INWAV:  cpu time    0.0000: real time    0.0000
 Broyden mixing: mesh for mixing (old mesh)
   NGX = 29   NGY = 33   NGZ = 21
  (NGX  = 84   NGY  =100   NGZ  = 64)
  gives a total of  20097 points

 initial charge density was supplied:
 charge density of overlapping atoms calculated
 number of electron      40.0000000 magnetization 
 keeping initial charge density in first step


--------------------------------------------------------------------------------------------------------


 Maximum index for augmentation-charges          920 (set IRDMAX)


--------------------------------------------------------------------------------------------------------


 First call to EWALD:  gamma=   0.273
 Maximum number of real-space cells 3x 2x 3
 Maximum number of reciprocal cells 3x 3x 2

 FEWALD executed in parallel
    FEWALD:  cpu time    0.0040: real time    0.0051


----------------------------------------- Iteration    1(   1)  ---------------------------------------


    POTLOK:  cpu time    0.0238: real time    0.0251
    SETDIJ:  cpu time    0.0072: real time    0.0080
     EDDAV:  cpu time    5.1757: real time    5.2048
       DOS:  cpu time    0.0060: real time    0.0060
    --------------------------------------------
      LOOP:  cpu time    5.2164: real time    5.2487

 eigenvalue-minimisations  :  5280
 total energy-change (2. order) : 0.9421387E+02  (-0.1528001E+04)
 number of electron      40.0000000 magnetization 
 augmentation part       40.0000000 magnetization 

 Free energy of the ion-electron system (eV)
  ---------------------------------------------------
  alpha Z        PSCENC =        15.27370333
  Ewald energy   TEWEN  =      -428.55742867
  -Hartree energ DENC   =        -0.11721019
  -exchange      EXHF   =         0.00000000
  -V(xc)+E(xc)   XCENC  =      -155.09374907
  PAW double counting   =       306.50462356      -84.16909176
  entropy T*S    EENTRO =         0.00691706
  eigenvalues    EBANDS =       228.36218860
  atomic energy  EATOM  =       212.00391708
  Solvation  Ediel_sol  =         0.00000000
  ---------------------------------------------------
  free energy    TOTEN  =        94.21386994 eV

  energy without entropy =       94.20695288  energy(sigma->0) =       94.21156425


--------------------------------------------------------------------------------------------------------




----------------------------------------- Iteration    1(   2)  ---------------------------------------


     EDDAV:  cpu time    5.2739: real time    5.2744
       DOS:  cpu time    0.0070: real time    0.0070
    --------------------------------------------
      LOOP:  cpu time    5.2828: real time    5.2834

 eigenvalue-minimisations  :  6068
 total energy-change (2. order) :-0.1046978E+03  (-0.9729384E+02)
 number of electron      40.0000000 magnetization 
 augmentation part       40.0000000 magnetization 

 Free energy of the ion-electron system (eV)
  ---------------------------------------------------
  alpha Z        PSCENC =        15.27370333
  Ewald energy   TEWEN  =      -428.55742867
  -Hartree energ DENC   =        -0.11721019
  -exchange      EXHF   =         0.00000000
  -V(xc)+E(xc)   XCENC  =      -155.09374907
  PAW double counting   =       306.50462356      -84.16909176
  entropy T*S    EENTRO =         0.00517401
  eigenvalues    EBANDS =       123.66612000
  atomic energy  EATOM  =       212.00391708
  Solvation  Ediel_sol  =         0.00000000
  ---------------------------------------------------
  free energy    TOTEN  =       -10.48394170 eV

  energy without entropy =      -10.48911571  energy(sigma->0) =      -10.48566637


--------------------------------------------------------------------------------------------------------




----------------------------------------- Iteration    1(   3)  ---------------------------------------


     EDDAV:  cpu time    5.6954: real time    5.6976
       DOS:  cpu time    0.0068: real time    0.0068
    --------------------------------------------
      LOOP:  cpu time    5.7043: real time    5.7065

 eigenvalue-minimisations  :  6764
 total energy-change (2. order) :-0.4539957E+01  (-0.4406030E+01)
 number of electron      40.0000000 magnetization 
 augmentation part       40.0000000 magnetization 

 Free energy of the ion-electron system (eV)
  ---------------------------------------------------
  alpha Z        PSCENC =        15.27370333
  Ewald energy   TEWEN  =      -428.55742867
  -Hartree energ DENC   =        -0.11721019
  -exchange      EXHF   =         0.00000000
  -V(xc)+E(xc)   XCENC  =      -155.09374907
  PAW double counting   =       306.50462356      -84.16909176
  entropy T*S    EENTRO =         0.00929062
  eigenvalues    EBANDS =       119.12204603
  atomic energy  EATOM  =       212.00391708
  Solvation  Ediel_sol  =         0.00000000
  ---------------------------------------------------
  free energy    TOTEN  =       -15.02389907 eV

  energy without entropy =      -15.03318968  energy(sigma->0) =      -15.02699594


--------------------------------------------------------------------------------------------------------




----------------------------------------- Iteration    1(   4)  ---------------------------------------


     EDDAV:  cpu time    5.3601: real time    5.3606
       DOS:  cpu time    0.0069: real time    0.0069
    --------------------------------------------
      LOOP:  cpu time    5.3689: real time    5.3701

 eigenvalue-minimisations  :  6368
 total energy-change (2. order) :-0.6621817E-01  (-0.6605004E-01)
 number of electron      40.0000000 magnetization 
 augmentation part       40.0000000 magnetization 

 Free energy of the ion-electron system (eV)
  ---------------------------------------------------
  alpha Z        PSCENC =        15.27370333
  Ewald energy   TEWEN  =      -428.55742867
  -Hartree energ DENC   =        -0.11721019
  -exchange      EXHF   =         0.00000000
  -V(xc)+E(xc)   XCENC  =      -155.09374907
  PAW double counting   =       306.50462356      -84.16909176
  entropy T*S    EENTRO =         0.00939682
  eigenvalues    EBANDS =       119.05572167
  atomic energy  EATOM  =       212.00391708
  Solvation  Ediel_sol  =         0.00000000
  ---------------------------------------------------
  free energy    TOTEN  =       -15.09011724 eV

  energy without entropy =      -15.09951405  energy(sigma->0) =      -15.09324951


--------------------------------------------------------------------------------------------------------




----------------------------------------- Iteration    1(   5)  ---------------------------------------


     EDDAV:  cpu time    5.2311: real time    5.2323
       DOS:  cpu time    0.0070: real time    0.0070
    CHARGE:  cpu time    0.1900: real time    0.1917
    MIXING:  cpu time    0.0040: real time    0.0040
    --------------------------------------------
      LOOP:  cpu time    5.4349: real time    5.4386

 eigenvalue-minimisations  :  6288
 total energy-change (2. order) :-0.9307248E-03  (-0.9306247E-03)
 number of electron      39.9999999 magnetization 
 augmentation part        0.9754056 magnetization 

 Broyden mixing:
  rms(total) = 0.49525E+00    rms(broyden)= 0.49525E+00
  rms(prec ) = 0.71737E+00
  weight for this iteration     100.00

 Free energy of the ion-electron system (eV)
  ---------------------------------------------------
  alpha Z        PSCENC =        15.27370333
  Ewald energy   TEWEN  =      -428.55742867
  -Hartree energ DENC   =        -0.11721019
  -exchange      EXHF   =         0.00000000
  -V(xc)+E(xc)   XCENC  =      -155.09374907
  PAW double counting   =       306.50462356      -84.16909176
  entropy T*S    EENTRO =         0.00939720
  eigenvalues    EBANDS =       119.05479055
  atomic energy  EATOM  =       212.00391708
  Solvation  Ediel_sol  =         0.00000000
  ---------------------------------------------------
  free energy    TOTEN  =       -15.09104796 eV

  energy without entropy =      -15.10044516  energy(sigma->0) =      -15.09418036


--------------------------------------------------------------------------------------------------------




----------------------------------------- Iteration    1(   6)  ---------------------------------------


    POTLOK:  cpu time    0.0237: real time    0.0248
    SETDIJ:  cpu time    0.0070: real time    0.0079
     EDDAV:  cpu time    5.3933: real time    5.3947
       DOS:  cpu time    0.0071: real time    0.0071
    CHARGE:  cpu time    0.1759: real time    0.1759
    MIXING:  cpu time    0.0040: real time    0.0040
    --------------------------------------------
      LOOP:  cpu time    5.6125: real time    5.6167

 eigenvalue-minimisations  :  6092
 total energy-change (2. order) : 0.2211266E+01  (-0.1259117E-01)
 number of electron      39.9999999 magnetization 
 augmentation part        0.9870235 magnetization 

 Broyden mixing:
  rms(total) = 0.31558E+00    rms(broyden)= 0.31558E+00
  rms(prec ) = 0.45466E+00
  weight for this iteration     100.00

 eigenvalues of (default mixing * dielectric matrix)
  average eigenvalue GAMMA=   2.7248
  2.7248

 Free energy of the ion-electron system (eV)
  ---------------------------------------------------
  alpha Z        PSCENC =        15.27370333
  Ewald energy   TEWEN  =      -428.55742867
  -Hartree energ DENC   =        -0.71849548
  -exchange      EXHF   =         0.00000000
  -V(xc)+E(xc)   XCENC  =      -153.71901439
  PAW double counting   =       560.76212176     -339.60306216
  entropy T*S    EENTRO =         0.00996571
  eigenvalues    EBANDS =       121.66851084
  atomic energy  EATOM  =       212.00391708
  Solvation  Ediel_sol  =         0.00000000
  ---------------------------------------------------
  free energy    TOTEN  =       -12.87978199 eV

  energy without entropy =      -12.88974770  energy(sigma->0) =      -12.88310389


--------------------------------------------------------------------------------------------------------




----------------------------------------- Iteration    1(   7)  ---------------------------------------


    POTLOK:  cpu time    0.0214: real time    0.0224
    SETDIJ:  cpu time    0.0056: real time    0.0067
     EDDAV:  cpu time    5.1508: real time    5.1514
       DOS:  cpu time    0.0072: real time    0.0072
    CHARGE:  cpu time    0.1700: real time    0.1700
    MIXING:  cpu time    0.0043: real time    0.0043
    --------------------------------------------
      LOOP:  cpu time    5.3605: real time    5.3637

 eigenvalue-minimisations  :  5864
 total energy-change (2. order) : 0.1145011E+01  (-0.1998764E-01)
 number of electron      39.9999999 magnetization 
 augmentation part        0.9929389 magnetization 

 Broyden mixing:
  rms(total) = 0.24844E-01    rms(broyden)= 0.24844E-01
  rms(prec ) = 0.44815E-01
  weight for this iteration     100.00

 eigenvalues of (default mixing * dielectric matrix)
  average eigenvalue GAMMA=   2.1846
  1.7077  2.6616

 Free energy of the ion-electron system (eV)
  ---------------------------------------------------
  alpha Z        PSCENC =        15.27370333
  Ewald energy   TEWEN  =      -428.55742867
  -Hartree energ DENC   =        -2.97592931
  -exchange      EXHF   =         0.00000000
  -V(xc)+E(xc)   XCENC  =      -150.99991511
  PAW double counting   =      1359.37480446    -1141.44254073
  entropy T*S    EENTRO =         0.01049742
  eigenvalues    EBANDS =       125.57812059
  atomic energy  EATOM  =       212.00391708
  Solvation  Ediel_sol  =         0.00000000
  ---------------------------------------------------
  free energy    TOTEN  =       -11.73477095 eV

  energy without entropy =      -11.74526837  energy(sigma->0) =      -11.73827009


--------------------------------------------------------------------------------------------------------




----------------------------------------- Iteration    1(   8)  ---------------------------------------


    POTLOK:  cpu time    0.0212: real time    0.0221
    SETDIJ:  cpu time    0.0058: real time    0.0072
     EDDAV:  cpu time    5.2313: real time    5.2318
       DOS:  cpu time    0.0073: real time    0.0073
    CHARGE:  cpu time    0.1746: real time    0.1746
    MIXING:  cpu time    0.0043: real time    0.0043
    --------------------------------------------
      LOOP:  cpu time    5.4460: real time    5.4492

 eigenvalue-minimisations  :  5976
 total energy-change (2. order) : 0.6408066E-02  (-0.1221800E-02)
 number of electron      39.9999999 magnetization 
 augmentation part        0.9926545 magnetization 

 Broyden mixing:
  rms(total) = 0.60304E-02    rms(broyden)= 0.60304E-02
  rms(prec ) = 0.88461E-02
  weight for this iteration     100.00

 eigenvalues of (default mixing * dielectric matrix)
  average eigenvalue GAMMA=   1.9449
  1.2511  2.8012  1.7824

 Free energy of the ion-electron system (eV)
  ---------------------------------------------------
  alpha Z        PSCENC =        15.27370333
  Ewald energy   TEWEN  =      -428.55742867
  -Hartree energ DENC   =        -3.03212432
  -exchange      EXHF   =         0.00000000
  -V(xc)+E(xc)   XCENC  =      -150.92884545
  PAW double counting   =      1321.97486650    -1103.87513230
  entropy T*S    EENTRO =         0.01026520
  eigenvalues    EBANDS =       125.40241576
  atomic energy  EATOM  =       212.00391708
  Solvation  Ediel_sol  =         0.00000000
  ---------------------------------------------------
  free energy    TOTEN  =       -11.72836289 eV

  energy without entropy =      -11.73862808  energy(sigma->0) =      -11.73178462


--------------------------------------------------------------------------------------------------------




----------------------------------------- Iteration    1(   9)  ---------------------------------------


    POTLOK:  cpu time    0.0215: real time    0.0215
    SETDIJ:  cpu time    0.0061: real time    0.0061
     EDDAV:  cpu time    5.6647: real time    5.6653
       DOS:  cpu time    0.0072: real time    0.0072
    CHARGE:  cpu time    0.2291: real time    0.2291
    MIXING:  cpu time    0.0044: real time    0.0044
    --------------------------------------------
      LOOP:  cpu time    5.9340: real time    5.9346

 eigenvalue-minimisations  :  6844
 total energy-change (2. order) : 0.1719636E-03  (-0.3365522E-04)
 number of electron      39.9999999 magnetization 
 augmentation part        0.9926193 magnetization 

 Broyden mixing:
  rms(total) = 0.25885E-02    rms(broyden)= 0.25885E-02
  rms(prec ) = 0.34370E-02
  weight for this iteration     100.00

 eigenvalues of (default mixing * dielectric matrix)
  average eigenvalue GAMMA=   1.9349
  0.9781  2.7500  2.2677  1.7440

 Free energy of the ion-electron system (eV)
  ---------------------------------------------------
  alpha Z        PSCENC =        15.27370333
  Ewald energy   TEWEN  =      -428.55742867
  -Hartree energ DENC   =        -3.08493622
  -exchange      EXHF   =         0.00000000
  -V(xc)+E(xc)   XCENC  =      -150.87896537
  PAW double counting   =      1320.17792434    -1102.06162855
  entropy T*S    EENTRO =         0.01025545
  eigenvalues    EBANDS =       125.38896768
  atomic energy  EATOM  =       212.00391708
  Solvation  Ediel_sol  =         0.00000000
  ---------------------------------------------------
  free energy    TOTEN  =       -11.72819092 eV

  energy without entropy =      -11.73844637  energy(sigma->0) =      -11.73160940


--------------------------------------------------------------------------------------------------------




----------------------------------------- Iteration    1(  10)  ---------------------------------------


    POTLOK:  cpu time    0.0227: real time    0.0227
    SETDIJ:  cpu time    0.0073: real time    0.0073
     EDDAV:  cpu time    5.1710: real time    5.1719
       DOS:  cpu time    0.0071: real time    0.0071
    CHARGE:  cpu time    0.1803: real time    0.1803
    MIXING:  cpu time    0.0039: real time    0.0039
    --------------------------------------------
      LOOP:  cpu time    5.3936: real time    5.3945

 eigenvalue-minimisations  :  6164
 total energy-change (2. order) : 0.3671894E-03  (-0.3123589E-05)
 number of electron      39.9999999 magnetization 
 augmentation part        0.9926508 magnetization 

 Broyden mixing:
  rms(total) = 0.56143E-03    rms(broyden)= 0.56143E-03
  rms(prec ) = 0.81450E-03
  weight for this iteration     100.00

 eigenvalues of (default mixing * dielectric matrix)
  average eigenvalue GAMMA=   1.8835
  2.7030  2.6021  0.9807  1.5658  1.5658

 Free energy of the ion-electron system (eV)
  ---------------------------------------------------
  alpha Z        PSCENC =        15.27370333
  Ewald energy   TEWEN  =      -428.55742867
  -Hartree energ DENC   =        -3.07431527
  -exchange      EXHF   =         0.00000000
  -V(xc)+E(xc)   XCENC  =      -150.89092025
  PAW double counting   =      1305.92349693    -1087.75451677
  entropy T*S    EENTRO =         0.01025477
  eigenvalues    EBANDS =       125.33798512
  atomic energy  EATOM  =       212.00391708
  Solvation  Ediel_sol  =         0.00000000
  ---------------------------------------------------
  free energy    TOTEN  =       -11.72782373 eV

  energy without entropy =      -11.73807850  energy(sigma->0) =      -11.73124199


--------------------------------------------------------------------------------------------------------




----------------------------------------- Iteration    1(  11)  ---------------------------------------


    POTLOK:  cpu time    0.0202: real time    0.0202
    SETDIJ:  cpu time    0.0062: real time    0.0062
     EDDAV:  cpu time    5.1411: real time    5.1424
       DOS:  cpu time    0.0073: real time    0.0073
    CHARGE:  cpu time    0.1825: real time    0.1842
    MIXING:  cpu time    0.0046: real time    0.0046
    --------------------------------------------
      LOOP:  cpu time    5.3629: real time    5.3659

 eigenvalue-minimisations  :  5916
 total energy-change (2. order) : 0.2800814E-04  (-0.4020185E-06)
 number of electron      39.9999999 magnetization 
 augmentation part        0.9926853 magnetization 

 Broyden mixing:
  rms(total) = 0.15990E-03    rms(broyden)= 0.15990E-03
  rms(prec ) = 0.28067E-03
  weight for this iteration     100.00

 eigenvalues of (default mixing * dielectric matrix)
  average eigenvalue GAMMA=   1.7990
  2.7235  2.5585  1.9091  1.6152  0.9940  0.9940

 Free energy of the ion-electron system (eV)
  ---------------------------------------------------
  alpha Z        PSCENC =        15.27370333
  Ewald energy   TEWEN  =      -428.55742867
  -Hartree energ DENC   =        -3.07334372
  -exchange      EXHF   =         0.00000000
  -V(xc)+E(xc)   XCENC  =      -150.89197701
  PAW double counting   =      1302.61510879    -1084.43332099
  entropy T*S    EENTRO =         0.01025366
  eigenvalues    EBANDS =       125.32529182
  atomic energy  EATOM  =       212.00391708
  Solvation  Ediel_sol  =         0.00000000
  ---------------------------------------------------
  free energy    TOTEN  =       -11.72779572 eV

  energy without entropy =      -11.73804938  energy(sigma->0) =      -11.73121361


--------------------------------------------------------------------------------------------------------




----------------------------------------- Iteration    1(  12)  ---------------------------------------


    POTLOK:  cpu time    0.0233: real time    0.0242
    SETDIJ:  cpu time    0.0072: real time    0.0080
     EDDAV:  cpu time    3.6909: real time    3.6914
       DOS:  cpu time    0.0074: real time    0.0074
    CHARGE:  cpu time    0.1703: real time    0.1703
    MIXING:  cpu time    0.0051: real time    0.0051
    --------------------------------------------
      LOOP:  cpu time    3.9054: real time    3.9081

 eigenvalue-minimisations  :  3276
 total energy-change (2. order) :-0.1412576E-05  (-0.3648141E-07)
 number of electron      39.9999999 magnetization 
 augmentation part        0.9926911 magnetization 

 Broyden mixing:
  rms(total) = 0.44535E-04    rms(broyden)= 0.44535E-04
  rms(prec ) = 0.62880E-04
  weight for this iteration     100.00

 eigenvalues of (default mixing * dielectric matrix)
  average eigenvalue GAMMA=   1.8655
  2.7315  2.7315  2.4223  0.9894  0.9703  1.6066  1.6066

 Free energy of the ion-electron system (eV)
  ---------------------------------------------------
  alpha Z        PSCENC =        15.27370333
  Ewald energy   TEWEN  =      -428.55742867
  -Hartree energ DENC   =        -3.07361865
  -exchange      EXHF   =         0.00000000
  -V(xc)+E(xc)   XCENC  =      -150.89174915
  PAW double counting   =      1302.90434869    -1084.72351983
  entropy T*S    EENTRO =         0.01025531
  eigenvalues    EBANDS =       125.32629476
  atomic energy  EATOM  =       212.00391708
  Solvation  Ediel_sol  =         0.00000000
  ---------------------------------------------------
  free energy    TOTEN  =       -11.72779714 eV

  energy without entropy =      -11.73805245  energy(sigma->0) =      -11.73121557


--------------------------------------------------------------------------------------------------------




----------------------------------------- Iteration    1(  13)  ---------------------------------------


    POTLOK:  cpu time    0.0218: real time    0.0218
    SETDIJ:  cpu time    0.0056: real time    0.0056
     EDDAV:  cpu time    3.6313: real time    3.6317
       DOS:  cpu time    0.0074: real time    0.0074
    --------------------------------------------
      LOOP:  cpu time    3.6671: real time    3.6674

 eigenvalue-minimisations  :  3216
 total energy-change (2. order) :-0.6694220E-06  (-0.6703544E-08)
 number of electron      39.9999999 magnetization 
 augmentation part        0.9926911 magnetization 

 Free energy of the ion-electron system (eV)
  ---------------------------------------------------
  alpha Z        PSCENC =        15.27370333
  Ewald energy   TEWEN  =      -428.55742867
  -Hartree energ DENC   =        -3.07355998
  -exchange      EXHF   =         0.00000000
  -V(xc)+E(xc)   XCENC  =      -150.89174389
  PAW double counting   =      1303.05189857    -1084.87142987
  entropy T*S    EENTRO =         0.01025529
  eigenvalues    EBANDS =       125.32659035
  atomic energy  EATOM  =       212.00391708
  Solvation  Ediel_sol  =         0.00000000
  ---------------------------------------------------
  free energy    TOTEN  =       -11.72779781 eV

  energy without entropy =      -11.73805310  energy(sigma->0) =      -11.73121624


--------------------------------------------------------------------------------------------------------




 average (electrostatic) potential at core
  the test charge radii are     0.9748
  (the norm of the test charge is              1.0000)
       1 -25.7442       2 -25.7442       3 -25.7442       4 -25.7442       5 -25.7442
       6 -25.7442       7 -25.7442       8 -25.7442       9 -25.6706      10 -25.6706
      11 -25.6706      12 -25.6706      13 -25.6706      14 -25.6706      15 -25.6706
      16 -25.6706      17 -25.7079      18 -25.7079      19 -25.7079      20 -25.7079
      21 -25.7079      22 -25.7079      23 -25.7079      24 -25.7079      25 -25.6277
      26 -25.6277      27 -25.6277      28 -25.6277      29 -25.6277      30 -25.6277
      31 -25.6277      32 -25.6277      33 -25.8104      34 -25.8104      35 -25.8104
      36 -25.8104      37 -25.8104      38 -25.8104      39 -25.8104      40 -25.8104
 
 
 
 E-fermi :   4.6817     XC(G=0):  -9.6864     alpha+bet :-21.4074


 k-point     1 :       0.0000    0.0833    0.0500
  band No.  band energies     occupation 
      1       1.2948      2.00000
      2       1.7985      2.00000
      3       2.0215      2.00000
      4       2.2784      2.00000
      5       2.3253      2.00000
      6       2.7582      2.00000
      7       2.8753      2.00000
      8       3.0121      2.00000
      9       3.1115      2.00000
     10       3.1703      2.00000
     11       3.4186      2.00000
     12       3.4929      2.00000
     13       3.6204      2.00000
     14       3.6602      2.00000
     15       3.7350      2.00000
     16       3.8402      2.00000
     17       4.0361      2.00005
     18       4.3921      2.05978
     19       4.4228      2.06956
     20       4.6056      1.59526
     21       5.8048     -0.00000
     22       6.0147     -0.00000
     23       6.2714     -0.00000
     24       6.4352     -0.00000
     25       6.4952     -0.00000
     26       6.6271     -0.00000
     27       6.8833     -0.00000
     28       7.4342     -0.00000
     29       7.4610     -0.00000
     30       7.6234     -0.00000
     31       7.6812     -0.00000
     32       7.7765     -0.00000
     33       8.3976     -0.00000
     34       8.5416     -0.00000
     35       9.2153     -0.00000
     36       9.3705     -0.00000
     37       9.6022     -0.00000
     38       9.8419     -0.00000
     39      10.1997      0.00000
     40      10.3109      0.00000
     41      10.5626      0.00000
     42      10.7211      0.00000
     43      10.9478      0.00000
     44      11.2410      0.00000

 k-point     2 :       0.1429    0.0833    0.0500
  band No.  band energies     occupation 
      1       1.3118      2.00000
      2       1.8176      2.00000
      3       2.0039      2.00000
      4       2.0413      2.00000
      5       2.5328      2.00000
      6       2.6643      2.00000
      7       2.7752      2.00000
      8       3.1105      2.00000
      9       3.2087      2.00000
     10       3.3808      2.00000
     11       3.4462      2.00000
     12       3.5048      2.00000
     13       3.5874      2.00000
     14       3.6771      2.00000
     15       3.7623      2.00000
     16       3.8441      2.00000
     17       3.9773      2.00001
     18       4.2672      2.01257
     19       4.4426      2.07064
     20       4.6580      1.19874
     21       5.6930     -0.00000
     22       5.8685     -0.00000
     23       6.2226     -0.00000
     24       6.3218     -0.00000
     25       6.4678     -0.00000
     26       6.8317     -0.00000
     27       6.9514     -0.00000
     28       7.1451     -0.00000
     29       7.4475     -0.00000
     30       7.6118     -0.00000
     31       7.6180     -0.00000
     32       7.7152     -0.00000
     33       8.7207     -0.00000
     34       8.7346     -0.00000
     35       9.2293     -0.00000
     36       9.2871     -0.00000
     37       9.6262     -0.00000
     38       9.8075     -0.00000
     39      10.1707      0.00000
     40      10.3942      0.00000
     41      10.4718      0.00000
     42      10.6338      0.00000
     43      11.2667      0.00000
     44      11.3526      0.00000

 k-point     3 :       0.2857    0.0833    0.0500
  band No.  band energies     occupation 
      1       1.3639      2.00000
      2       1.7679      2.00000
      3       1.8754      2.00000
      4       2.1010      2.00000
      5       2.3017      2.00000
      6       2.5392      2.00000
      7       3.0878      2.00000
      8       3.2103      2.00000
      9       3.4675      2.00000
     10       3.4913      2.00000
     11       3.5252      2.00000
     12       3.5426      2.00000
     13       3.6575      2.00000
     14       3.7613      2.00000
     15       3.7750      2.00000
     16       3.8497      2.00000
     17       3.9499      2.00000
     18       4.0506      2.00008
     19       4.3820      2.05546
     20       4.5740      1.78117
     21       5.6062     -0.00000
     22       5.7017     -0.00000
     23       6.0935     -0.00000
     24       6.1527     -0.00000
     25       6.2069     -0.00000
     26       6.5496     -0.00000
     27       7.0858     -0.00000
     28       7.3466     -0.00000
     29       7.4573     -0.00000
     30       7.5599     -0.00000
     31       7.5866     -0.00000
     32       7.9022     -0.00000
     33       8.8463     -0.00000
     34       8.8788     -0.00000
     35       9.1454     -0.00000
     36       9.2894     -0.00000
     37       9.5942     -0.00000
     38       9.7189     -0.00000
     39      10.2123      0.00000
     40      10.2810      0.00000
     41      10.6295      0.00000
     42      10.8272      0.00000
     43      11.4441      0.00000
     44      11.5606      0.00000

 k-point     4 :       0.4286    0.0833    0.0500
  band No.  band energies     occupation 
      1       1.4539      2.00000
      2       1.5867      2.00000
      3       1.9734      2.00000
      4       2.1133      2.00000
      5       2.2048      2.00000
      6       2.3487      2.00000
      7       3.2922      2.00000
      8       3.3899      2.00000
      9       3.5514      2.00000
     10       3.5983      2.00000
     11       3.6487      2.00000
     12       3.6543      2.00000
     13       3.7074      2.00000
     14       3.7328      2.00000
     15       3.8427      2.00000
     16       3.8833      2.00000
     17       3.9413      2.00000
     18       4.0050      2.00002
     19       4.1544      2.00123
     20       4.3470      2.03944
     21       5.6346     -0.00000
     22       5.7552     -0.00000
     23       5.9463     -0.00000
     24       5.9549     -0.00000
     25       6.0684     -0.00000
     26       6.0872     -0.00000
     27       7.2676     -0.00000
     28       7.4452     -0.00000
     29       7.4774     -0.00000
     30       7.5241     -0.00000
     31       7.9514     -0.00000
     32       8.2283     -0.00000
     33       8.4897     -0.00000
     34       8.5880     -0.00000
     35       9.2683     -0.00000
     36       9.3311     -0.00000
     37       9.5064     -0.00000
     38       9.5930     -0.00000
     39      10.1991      0.00000
     40      10.2732      0.00000
     41      10.9287      0.00000
     42      11.0249      0.00000
     43      11.6789      0.00000
     44      11.7683      0.00000

 k-point     5 :       0.0000    0.2500    0.0500
  band No.  band energies     occupation 
      1       1.3254      2.00000
      2       1.6208      2.00000
      3       2.2862      2.00000
      4       2.3073      2.00000
      5       2.3596      2.00000
      6       2.5924      2.00000
      7       2.6952      2.00000
      8       3.1853      2.00000
      9       3.2281      2.00000
     10       3.2854      2.00000
     11       3.3706      2.00000
     12       3.4315      2.00000
     13       3.6264      2.00000
     14       3.7194      2.00000
     15       3.7254      2.00000
     16       3.9114      2.00000
     17       3.9542      2.00000
     18       4.2214      2.00537
     19       4.2496      2.00921
     20       4.4507      2.06927
     21       5.9548     -0.00000
     22       6.0983     -0.00000
     23       6.3133     -0.00000
     24       6.5418     -0.00000
     25       6.6497     -0.00000
     26       6.7514     -0.00000
     27       6.8021     -0.00000
     28       7.0885     -0.00000
     29       7.5897     -0.00000
     30       7.6601     -0.00000
     31       7.7470     -0.00000
     32       8.0008     -0.00000
     33       8.3622     -0.00000
     34       8.5632     -0.00000
     35       9.2924     -0.00000
     36       9.3985     -0.00000
     37       9.4854     -0.00000
     38       9.5983     -0.00000
     39       9.9405     -0.00000
     40      10.3163      0.00000
     41      10.3255      0.00000
     42      10.8550      0.00000
     43      10.9043      0.00000
     44      11.3587      0.00000

 k-point     6 :       0.1429    0.2500    0.0500
  band No.  band energies     occupation 
      1       1.3425      2.00000
      2       1.6392      2.00000
      3       2.0362      2.00000
      4       2.2999      2.00000
      5       2.3587      2.00000
      6       2.6928      2.00000
      7       2.9783      2.00000
      8       3.0530      2.00000
      9       3.2191      2.00000
     10       3.2559      2.00000
     11       3.4466      2.00000
     12       3.5731      2.00000
     13       3.6180      2.00000
     14       3.7366      2.00000
     15       3.7445      2.00000
     16       3.9112      2.00000
     17       3.9163      2.00000
     18       4.0423      2.00006
     19       4.3248      2.03007
     20       4.4990      2.02731
     21       5.8367     -0.00000
     22       6.0259     -0.00000
     23       6.2679     -0.00000
     24       6.3800     -0.00000
     25       6.5561     -0.00000
     26       6.8069     -0.00000
     27       6.9474     -0.00000
     28       7.0245     -0.00000
     29       7.4828     -0.00000
     30       7.6541     -0.00000
     31       7.6700     -0.00000
     32       7.9759     -0.00000
     33       8.6170     -0.00000
     34       8.7373     -0.00000
     35       9.2942     -0.00000
     36       9.3635     -0.00000
     37       9.4203     -0.00000
     38       9.6151     -0.00000
     39      10.0192     -0.00000
     40      10.2214      0.00000
     41      10.3854      0.00000
     42      10.9190      0.00000
     43      10.9296      0.00000
     44      11.4835      0.00000

 k-point     7 :       0.2857    0.2500    0.0500
  band No.  band energies     occupation 
      1       1.3949      2.00000
      2       1.6949      2.00000
      3       1.8004      2.00000
      4       2.1127      2.00000
      5       2.3748      2.00000
      6       2.8204      2.00000
      7       3.1041      2.00000
      8       3.2350      2.00000
      9       3.3419      2.00000
     10       3.3769      2.00000
     11       3.4902      2.00000
     12       3.5275      2.00000
     13       3.7058      2.00000
     14       3.7356      2.00000
     15       3.8256      2.00000
     16       3.8382      2.00000
     17       3.8999      2.00000
     18       3.9557      2.00000
     19       4.2718      2.01358
     20       4.4635      2.06436
     21       5.6847     -0.00000
     22       5.9432     -0.00000
     23       6.0767     -0.00000
     24       6.1406     -0.00000
     25       6.4214     -0.00000
     26       6.5015     -0.00000
     27       6.9223     -0.00000
     28       7.3687     -0.00000
     29       7.4408     -0.00000
     30       7.7044     -0.00000
     31       7.8464     -0.00000
     32       7.9143     -0.00000
     33       8.7209     -0.00000
     34       8.8919     -0.00000
     35       9.1853     -0.00000
     36       9.2586     -0.00000
     37       9.4297     -0.00000
     38       9.5620     -0.00000
     39      10.0364     -0.00000
     40      10.1941      0.00000
     41      10.6055      0.00000
     42      11.0470      0.00000
     43      11.1352      0.00000
     44      11.6737      0.00000

 k-point     8 :       0.4286    0.2500    0.0500
  band No.  band energies     occupation 
      1       1.4854      2.00000
      2       1.6187      2.00000
      3       1.7902      2.00000
      4       1.9283      2.00000
      5       2.4800      2.00000
      6       2.6289      2.00000
      7       3.3264      2.00000
      8       3.4282      2.00000
      9       3.4334      2.00000
     10       3.5348      2.00000
     11       3.6126      2.00000
     12       3.6246      2.00000
     13       3.6536      2.00000
     14       3.6598      2.00000
     15       3.7708      2.00000
     16       3.8619      2.00000
     17       3.9758      2.00001
     18       3.9977      2.00001
     19       4.0856      2.00021
     20       4.2425      2.00807
     21       5.7039     -0.00000
     22       5.9075     -0.00000
     23       5.9156     -0.00000
     24       6.0739     -0.00000
     25       6.0897     -0.00000
     26       6.2686     -0.00000
     27       7.0791     -0.00000
     28       7.2451     -0.00000
     29       7.6874     -0.00000
     30       7.7996     -0.00000
     31       8.0674     -0.00000
     32       8.1677     -0.00000
     33       8.5189     -0.00000
     34       8.5463     -0.00000
     35       9.2283     -0.00000
     36       9.2786     -0.00000
     37       9.3692     -0.00000
     38       9.4410     -0.00000
     39      10.0112     -0.00000
     40      10.1804      0.00000
     41      10.8992      0.00000
     42      11.0806      0.00000
     43      11.5826      0.00000
     44      11.7917      0.00000

 k-point     9 :       0.0000    0.4167    0.0500
  band No.  band energies     occupation 
      1       1.3879      2.00000
      2       1.4852      2.00000
      3       2.3669      2.00000
      4       2.4278      2.00000
      5       2.4608      2.00000
      6       2.5096      2.00000
      7       2.6324      2.00000
      8       2.9318      2.00000
      9       3.2581      2.00000
     10       3.3438      2.00000
     11       3.5650      2.00000
     12       3.6556      2.00000
     13       3.6593      2.00000
     14       3.6954      2.00000
     15       3.8095      2.00000
     16       3.8198      2.00000
     17       3.9555      2.00000
     18       3.9984      2.00002
     19       4.0491      2.00007
     20       4.2401      2.00771
     21       6.2134     -0.00000
     22       6.2424     -0.00000
     23       6.4019     -0.00000
     24       6.4750     -0.00000
     25       6.5090     -0.00000
     26       6.7414     -0.00000
     27       6.9592     -0.00000
     28       7.2361     -0.00000
     29       7.3020     -0.00000
     30       7.5943     -0.00000
     31       7.9459     -0.00000
[...]
     31       7.9620     -0.00000
     32       7.9925     -0.00000
     33       8.5094     -0.00000
     34       8.6918     -0.00000
     35       8.8199     -0.00000
     36       8.9438     -0.00000
     37       9.2522     -0.00000
     38       9.3910     -0.00000
     39       9.4225     -0.00000
     40       9.5411     -0.00000
     41      10.2061      0.00000
     42      10.3446      0.00000
     43      10.3871      0.00000
     44      10.5316      0.00000

 k-point    58 :       0.1429    0.4167    0.4500
  band No.  band energies     occupation 
      1       1.5001      2.00000
      2       1.6208      2.00000
      3       1.7166      2.00000
      4       1.8424      2.00000
      5       2.2438      2.00000
      6       2.3617      2.00000
      7       2.4588      2.00000
      8       2.5812      2.00000
      9       2.8788      2.00000
     10       2.8961      2.00000
     11       2.9990      2.00000
     12       3.1315      2.00000
     13       3.1322      2.00000
     14       3.2371      2.00000
     15       3.3721      2.00000
     16       3.4296      2.00000
     17       3.5629      2.00000
     18       3.6087      2.00000
     19       3.6159      2.00000
     20       3.6327      2.00000
     21       6.2285     -0.00000
     22       6.2438     -0.00000
     23       6.3647     -0.00000
     24       6.3805     -0.00000
     25       7.1173     -0.00000
     26       7.1520     -0.00000
     27       7.4320     -0.00000
     28       7.4745     -0.00000
     29       7.9358     -0.00000
     30       7.9485     -0.00000
     31       8.0025     -0.00000
     32       8.0512     -0.00000
     33       8.6148     -0.00000
     34       8.6648     -0.00000
     35       8.8366     -0.00000
     36       9.0595     -0.00000
     37       9.2865     -0.00000
     38       9.3552     -0.00000
     39       9.5149     -0.00000
     40       9.6067     -0.00000
     41      10.2175      0.00000
     42      10.3338      0.00000
     43      10.4788      0.00000
     44      10.6446      0.00000

 k-point    59 :       0.2857    0.4167    0.4500
  band No.  band energies     occupation 
      1       1.5590      2.00000
      2       1.6800      2.00000
      3       1.7763      2.00000
      4       1.9019      2.00000
      5       1.9998      2.00000
      6       2.1199      2.00000
      7       2.2181      2.00000
      8       2.3436      2.00000
      9       2.9642      2.00000
     10       3.1431      2.00000
     11       3.2445      2.00000
     12       3.2592      2.00000
     13       3.3523      2.00000
     14       3.3955      2.00000
     15       3.4805      2.00000
     16       3.4921      2.00000
     17       3.5596      2.00000
     18       3.6490      2.00000
     19       3.6630      2.00000
     20       3.7022      2.00000
     21       5.7728     -0.00000
     22       5.8395     -0.00000
     23       5.8968     -0.00000
     24       5.9427     -0.00000
     25       7.1888     -0.00000
     26       7.2018     -0.00000
     27       7.4100     -0.00000
     28       7.4865     -0.00000
     29       7.8846     -0.00000
     30       7.9191     -0.00000
     31       7.9985     -0.00000
     32       8.1624     -0.00000
     33       8.7046     -0.00000
     34       8.7323     -0.00000
     35       8.9411     -0.00000
     36       9.1653     -0.00000
     37       9.3492     -0.00000
     38       9.3626     -0.00000
     39       9.5918     -0.00000
     40       9.6550     -0.00000
     41      10.3164      0.00000
     42      10.4451      0.00000
     43      10.6090      0.00000
     44      10.8160      0.00000

 k-point    60 :       0.4286    0.4167    0.4500
  band No.  band energies     occupation 
      1       1.6595      2.00000
      2       1.7806      2.00000
      3       1.8049      2.00000
      4       1.8762      2.00000
      5       1.9289      2.00000
      6       2.0048      2.00000
      7       2.0252      2.00000
      8       2.1517      2.00000
      9       3.0485      2.00000
     10       3.1555      2.00000
     11       3.2478      2.00000
     12       3.3019      2.00000
     13       3.4562      2.00000
     14       3.4941      2.00000
     15       3.5414      2.00000
     16       3.6161      2.00000
     17       3.7080      2.00000
     18       3.7884      2.00002
     19       3.8147      2.00004
     20       3.8257      2.00005
     21       5.4517     -0.00000
     22       5.5016     -0.00000
     23       5.5202     -0.00000
     24       5.5569     -0.00000
     25       7.2162     -0.00000
     26       7.2459     -0.00000
     27       7.4036     -0.00000
     28       7.5394     -0.00000
     29       7.8630     -0.00000
     30       7.9206     -0.00000
     31       7.9535     -0.00000
     32       8.1004     -0.00000
     33       8.6493     -0.00000
     34       8.9184     -0.00000
     35       9.0888     -0.00000
     36       9.1380     -0.00000
     37       9.3956     -0.00000
     38       9.4408     -0.00000
     39       9.5338     -0.00000
     40       9.6027     -0.00000
     41      10.4178      0.00000
     42      10.5846      0.00000
     43      10.7145      0.00000
     44      10.9112      0.00000


--------------------------------------------------------------------------------------------------------


 soft charge-density along one line, spin component           1
         0         1         2         3         4         5         6         7         8         9
 total charge-density along one line
 
 pseudopotential strength for first ion, spin component:           1
  1.204   5.375  -0.004   0.012   0.004
  5.375  22.974  -0.015   0.044   0.016
 -0.004  -0.015  -0.240  -0.001   0.002
  0.012   0.044  -0.001  -0.249  -0.000
  0.004   0.016   0.002  -0.000  -0.241
 total augmentation occupancy for first ion, spin component:           1
  2.390  -0.037   0.039  -0.111  -0.040
 -0.037   0.001  -0.002   0.003   0.002
  0.039  -0.002   0.221  -0.007   0.011
 -0.111   0.003  -0.007   0.139   0.002
 -0.040   0.002   0.011   0.002   0.210


------------------------ aborting loop because EDIFF is reached ----------------------------------------


    CHARGE:  cpu time    0.1744: real time    0.1744
    FORLOC:  cpu time    0.0119: real time    0.0119
    FORNL :  cpu time   13.0504: real time   13.0517
    STRESS:  cpu time    4.7382: real time    4.7386
    FORCOR:  cpu time    0.0289: real time    0.0301
    FORHAR:  cpu time    0.0210: real time    0.0210
    MIXING:  cpu time    0.0040: real time    0.0040
    OFIELD:  cpu time    0.0000: real time    0.0000

  FORCE on cell =-STRESS in cart. coord.  units (eV):
  Direction    XX          YY          ZZ          XY          YZ          ZX
  --------------------------------------------------------------------------------------
  Alpha Z    14.66861    14.66861    14.66861
  Ewald    -143.54059  -148.58992  -130.75455     0.00000     0.00000    -0.00000
  Hartree     1.18519     0.68929     1.05755    -0.00000    -0.00000     0.00000
  E(xc)    -108.52436  -108.98650  -107.79154     0.00000     0.00000    -0.00000
  Local       7.69849     2.19418    11.56684     0.00000     0.00000    -0.00000
  n-local   130.63494   131.23143   128.18102     0.01971     0.07519    -0.21154
  augment     7.39761     7.55325     7.07943    -0.00000    -0.00000     0.00000
  Kinetic   215.23433   226.17230   200.76730     0.07347    -1.14826    -0.90260
  Fock        0.00000     0.00000     0.00000     0.00000     0.00000     0.00000
  -------------------------------------------------------------------------------------
  Total     124.75422   124.93264   124.77466     0.00000     0.00000     0.00000
  in kB     699.49357   700.49394   699.60817     0.00000     0.00000     0.00000
  external pressure =       -0.13 kB  Pullay stress =      700.00 kB


 VOLUME and BASIS-vectors are now :
 -----------------------------------------------------------------------------
  energy-cutoff  :      650.00
  volume of cell :      285.75
      direct lattice vectors                 reciprocal lattice vectors
     6.901880560  0.000000000  0.000000000     0.144888048  0.000000000  0.000000000
     0.000000000  8.159272636  0.000000000     0.000000000  0.122559944  0.000000000
     0.000000000  0.000000000  5.074149114     0.000000000  0.000000000  0.197077377

  length of vectors
     6.901880560  8.159272636  5.074149114     0.144888048  0.122559944  0.197077377


 FORCES acting on ions
    electron-ion (+dipol)            ewald-force                    non-local-force                 convergence-correction
 -----------------------------------------------------------------------------------------------
   -.410E-01 0.105E+00 -.258E+00   -.446E+00 0.365E+00 -.115E+01   0.486E+00 -.465E+00 0.142E+01   0.265E-06 -.417E-06 0.310E-06
   0.410E-01 -.105E+00 -.258E+00   0.446E+00 -.365E+00 -.115E+01   -.486E+00 0.465E+00 0.142E+01   -.265E-06 0.417E-06 0.310E-06
   -.410E-01 -.105E+00 -.258E+00   -.446E+00 -.365E+00 -.115E+01   0.486E+00 0.465E+00 0.142E+01   0.265E-06 0.417E-06 0.310E-06
   0.410E-01 0.105E+00 -.258E+00   0.446E+00 0.365E+00 -.115E+01   -.486E+00 -.465E+00 0.142E+01   -.265E-06 -.417E-06 0.310E-06
   -.410E-01 0.105E+00 -.258E+00   -.446E+00 0.365E+00 -.115E+01   0.486E+00 -.465E+00 0.142E+01   0.265E-06 -.417E-06 0.310E-06
   0.410E-01 -.105E+00 -.258E+00   0.446E+00 -.365E+00 -.115E+01   -.486E+00 0.465E+00 0.142E+01   -.265E-06 0.417E-06 0.310E-06
   -.410E-01 -.105E+00 -.258E+00   -.446E+00 -.365E+00 -.115E+01   0.486E+00 0.465E+00 0.142E+01   0.265E-06 0.417E-06 0.310E-06
   0.410E-01 0.105E+00 -.258E+00   0.446E+00 0.365E+00 -.115E+01   -.486E+00 -.465E+00 0.142E+01   -.265E-06 -.417E-06 0.310E-06
   -.220E-01 -.397E-01 0.129E+00   -.477E-01 -.224E+00 0.724E+00   0.713E-01 0.263E+00 -.851E+00   0.454E-06 0.103E-05 0.505E-06
   0.220E-01 0.397E-01 0.129E+00   0.477E-01 0.224E+00 0.724E+00   -.713E-01 -.263E+00 -.851E+00   -.454E-06 -.103E-05 0.505E-06
   -.220E-01 0.397E-01 0.129E+00   -.477E-01 0.224E+00 0.724E+00   0.713E-01 -.263E+00 -.851E+00   0.454E-06 -.103E-05 0.505E-06
   0.220E-01 -.397E-01 0.129E+00   0.477E-01 -.224E+00 0.724E+00   -.713E-01 0.263E+00 -.851E+00   -.454E-06 0.103E-05 0.505E-06
   -.220E-01 -.397E-01 0.129E+00   -.477E-01 -.224E+00 0.724E+00   0.713E-01 0.263E+00 -.851E+00   0.454E-06 0.103E-05 0.505E-06
   0.220E-01 0.397E-01 0.129E+00   0.477E-01 0.224E+00 0.724E+00   -.713E-01 -.263E+00 -.851E+00   -.454E-06 -.103E-05 0.505E-06
   -.220E-01 0.397E-01 0.129E+00   -.477E-01 0.224E+00 0.724E+00   0.713E-01 -.263E+00 -.851E+00   0.454E-06 -.103E-05 0.505E-06
   0.220E-01 -.397E-01 0.129E+00   0.477E-01 -.224E+00 0.724E+00   -.713E-01 0.263E+00 -.851E+00   -.454E-06 0.103E-05 0.505E-06
   -.282E+00 -.146E+00 0.291E-01   -.651E+00 -.269E-01 0.713E-01   0.932E+00 0.172E+00 -.102E+00   -.245E-06 -.989E-06 -.871E-06
   0.282E+00 0.146E+00 0.291E-01   0.651E+00 0.269E-01 0.713E-01   -.932E+00 -.172E+00 -.102E+00   0.246E-06 0.989E-06 -.871E-06
   -.282E+00 0.146E+00 0.291E-01   -.651E+00 0.269E-01 0.713E-01   0.932E+00 -.172E+00 -.102E+00   -.246E-06 0.989E-06 -.871E-06
   0.282E+00 -.146E+00 0.291E-01   0.651E+00 -.269E-01 0.713E-01   -.932E+00 0.172E+00 -.102E+00   0.245E-06 -.989E-06 -.871E-06
   -.282E+00 -.146E+00 0.291E-01   -.651E+00 -.269E-01 0.713E-01   0.932E+00 0.172E+00 -.102E+00   -.245E-06 -.989E-06 -.871E-06
   0.282E+00 0.146E+00 0.291E-01   0.651E+00 0.269E-01 0.713E-01   -.932E+00 -.172E+00 -.102E+00   0.245E-06 0.989E-06 -.871E-06
   -.282E+00 0.146E+00 0.291E-01   -.651E+00 0.269E-01 0.713E-01   0.932E+00 -.172E+00 -.102E+00   -.246E-06 0.989E-06 -.871E-06
   0.282E+00 -.146E+00 0.291E-01   0.651E+00 -.269E-01 0.713E-01   -.932E+00 0.172E+00 -.102E+00   0.245E-06 -.989E-06 -.871E-06
   -.495E-01 -.668E-01 0.121E-01   -.198E+00 0.663E-01 0.372E-01   0.244E+00 0.263E-02 -.510E-01   -.147E-06 0.502E-06 0.135E-06
   0.495E-01 0.668E-01 0.121E-01   0.198E+00 -.663E-01 0.372E-01   -.244E+00 -.263E-02 -.510E-01   0.147E-06 -.502E-06 0.135E-06
   -.495E-01 0.668E-01 0.121E-01   -.198E+00 -.663E-01 0.372E-01   0.244E+00 -.263E-02 -.510E-01   -.147E-06 -.502E-06 0.135E-06
   0.495E-01 -.668E-01 0.121E-01   0.198E+00 0.663E-01 0.372E-01   -.244E+00 0.263E-02 -.510E-01   0.147E-06 0.502E-06 0.135E-06
   -.495E-01 -.668E-01 0.121E-01   -.198E+00 0.663E-01 0.372E-01   0.244E+00 0.263E-02 -.510E-01   -.147E-06 0.502E-06 0.135E-06
   0.495E-01 0.668E-01 0.121E-01   0.198E+00 -.663E-01 0.372E-01   -.244E+00 -.263E-02 -.510E-01   0.147E-06 -.502E-06 0.135E-06
   -.495E-01 0.668E-01 0.121E-01   -.198E+00 -.663E-01 0.372E-01   0.244E+00 -.263E-02 -.510E-01   -.147E-06 -.502E-06 0.135E-06
   0.495E-01 -.668E-01 0.121E-01   0.198E+00 0.663E-01 0.372E-01   -.244E+00 0.263E-02 -.510E-01   0.147E-06 0.502E-06 0.135E-06
   0.461E-01 0.151E+00 0.986E-01   0.202E+00 -.151E+00 0.322E+00   -.242E+00 0.908E-03 -.422E+00   -.908E-06 0.423E-06 -.105E-06
   -.461E-01 -.151E+00 0.986E-01   -.202E+00 0.151E+00 0.322E+00   0.242E+00 -.908E-03 -.422E+00   0.908E-06 -.423E-06 -.105E-06
   0.461E-01 -.151E+00 0.986E-01   0.202E+00 0.151E+00 0.322E+00   -.242E+00 -.908E-03 -.422E+00   -.908E-06 -.423E-06 -.105E-06
   -.461E-01 0.151E+00 0.986E-01   -.202E+00 -.151E+00 0.322E+00   0.242E+00 0.908E-03 -.422E+00   0.908E-06 0.423E-06 -.105E-06
   0.461E-01 0.151E+00 0.986E-01   0.202E+00 -.151E+00 0.322E+00   -.242E+00 0.908E-03 -.422E+00   -.908E-06 0.423E-06 -.105E-06
   -.461E-01 -.151E+00 0.986E-01   -.202E+00 0.151E+00 0.322E+00   0.242E+00 -.908E-03 -.422E+00   0.908E-06 -.423E-06 -.105E-06
   0.461E-01 -.151E+00 0.986E-01   0.202E+00 0.151E+00 0.322E+00   -.242E+00 -.908E-03 -.422E+00   -.908E-06 -.423E-06 -.105E-06
   -.461E-01 0.151E+00 0.986E-01   -.202E+00 -.151E+00 0.322E+00   0.242E+00 0.908E-03 -.422E+00   0.908E-06 0.423E-06 -.105E-06
 -----------------------------------------------------------------------------------------------
   -.287E-04 0.240E-04 0.841E-01   0.724E-14 0.308E-14 -.416E-14   0.139E-15 -.113E-15 -.850E-01   0.272E-12 -.122E-13 -.208E-06
 
 
 POSITION                                       TOTAL-FORCE (eV/Angst)
 -----------------------------------------------------------------------------------
      0.64182      0.94984     -0.00296        -0.001197      0.003913      0.002522
      6.26006      7.20943     -0.00296         0.001197     -0.003913      0.002522
      4.09276      3.12980     -0.00296        -0.001197     -0.003913      0.002522
      2.80912      5.02947     -0.00296         0.001197      0.003913      0.002522
      0.64182      5.02947      2.53412        -0.001197      0.003913      0.002522
      6.26006      3.12980      2.53412         0.001197     -0.003913      0.002522
      4.09276      7.20943      2.53412        -0.001197     -0.003913      0.002522
      2.80912      0.94984      2.53412         0.001197      0.003913      0.002522
      5.96019      7.36706      1.59155         0.001641     -0.000771      0.002435
      0.94170      0.79221      1.59155        -0.001641      0.000771      0.002435
      2.50924      4.87185      1.59155         0.001641      0.000771      0.002435
      4.39264      3.28742      1.59155        -0.001641     -0.000771      0.002435
      5.96019      3.28742      4.12862         0.001641     -0.000771      0.002435
      0.94170      4.87185      4.12862        -0.001641      0.000771      0.002435
      2.50924      0.79221      4.12862         0.001641      0.000771      0.002435
      4.39264      7.36706      4.12862        -0.001641     -0.000771      0.002435
      6.67567      0.95616      3.01113        -0.000455     -0.001015     -0.001248
      0.22621      7.20311      3.01113         0.000455      0.001015     -0.001248
      3.22473      3.12347      3.01113        -0.000455      0.001015     -0.001248
      3.67715      5.03580      3.01113         0.000455     -0.001015     -0.001248
      6.67567      5.03580      0.47406        -0.000455     -0.001015     -0.001248
      0.22621      3.12347      0.47406         0.000455      0.001015     -0.001248
      3.22473      7.20311      0.47406        -0.000455      0.001015     -0.001248
      3.67715      0.95616      0.47406         0.000455     -0.001015     -0.001248
      2.42023      2.18591      0.89752        -0.003444      0.002186     -0.001587
      4.48165      5.97336      0.89752         0.003444     -0.002186     -0.001587
      5.87117      1.89373      0.89752        -0.003444     -0.002186     -0.001587
      1.03071      6.26555      0.89752         0.003444      0.002186     -0.001587
      2.42023      6.26555      3.43459        -0.003444      0.002186     -0.001587
      4.48165      1.89373      3.43459         0.003444     -0.002186     -0.001587
      5.87117      5.97336      3.43459        -0.003444     -0.002186     -0.001587
      1.03071      2.18591      3.43459         0.003444      0.002186     -0.001587
      2.00855      7.44153      1.91498         0.006137      0.000518     -0.002121
      4.89333      0.71774      1.91498        -0.006137     -0.000518     -0.002121
      5.45949      4.79738      1.91498         0.006137     -0.000518     -0.002121
      1.44239      3.36189      1.91498        -0.006137      0.000518     -0.002121
      2.00855      3.36189      4.45205         0.006137      0.000518     -0.002121
      4.89333      4.79738      4.45205        -0.006137     -0.000518     -0.002121
      5.45949      0.71774      4.45205         0.006137     -0.000518     -0.002121
      1.44239      7.44153      4.45205        -0.006137      0.000518     -0.002121
 -----------------------------------------------------------------------------------
    total drift:                               -0.000029      0.000024     -0.000804


--------------------------------------------------------------------------------------------------------



  FREE ENERGIE OF THE ION-ELECTRON SYSTEM (eV)
  ---------------------------------------------------
  free  energy   TOTEN  =       -16.93243126 eV

  energy  without entropy=      -16.94227841  energy(sigma->0) =      -16.93571364
  enthalpy is  TOTEN    =       107.91211280 eV   P V=      124.84454406

 d Force = 0.9464743E-04[ 0.403E-04, 0.149E-03]  d Energy = 0.6756475E-04 0.271E-04
 d Force = 0.2985006E-02[ 0.292E-02, 0.305E-02]  d Ewald  =-0.6668898E-02 0.965E-02


--------------------------------------------------------------------------------------------------------


    POTLOK:  cpu time    0.0283: real time    0.0302


--------------------------------------------------------------------------------------------------------




--------------------------------------------------------------------------------------------------------


  
 reached required accuracy - stopping structural energy minimisation
     LOOP+:  cpu time   45.0677: real time   45.0865
    4ORBIT:  cpu time    0.0000: real time    0.0000

 total amount of memory used by VASP on root node    46714. kBytes
========================================================================

   base      :      30000. kBytes
   nonl-proj :       3210. kBytes
   fftplans  :        874. kBytes
   grid      :       1264. kBytes
   one-center:          4. kBytes
   wavefun   :      11362. kBytes
 
  
  
 General timing and accounting informations for this job:
 ========================================================
  
                  Total CPU time used (sec):      518.691
                            User time (sec):      487.358
                          System time (sec):       31.333
                         Elapsed time (sec):      519.574
  
                   Maximum memory used (kb):      203800.
                   Average memory used (kb):           0.
  
                          Minor page faults:        95199
                          Major page faults:            1
                 Voluntary context switches:         1785
