-2.980284855745045661e+03
-2.979978798236114471e+03
-2.980303208546133192e+03
-2.979899979693933801e+03
-2.980303311486807615e+03
-2.980288933969925438e+03
-2.980029936784766051e+03
-2.980303365610254787e+03
-2.980238304900057756e+03
-2.980163659904243104e+03
-2.979995498761828912e+03
-2.980261501790491366e+03
-2.979855921139812381e+03
-2.980300588987613537e+03
-2.980302853709656574e+03
-2.979904432020951390e+03
-2.980242497385548631e+03
-2.980043874647280973e+03
-2.980284516663961767e+03
-2.980197828888204185e+03
-2.980303329881704485e+03
-2.980254129327980991e+03
-2.980274633379631723e+03
-2.980295666992069528e+03
-2.980206408366173491e+03
-2.979387527330595276e+03
-2.980297648334736095e+03
-2.979880116443218412e+03
-2.979796563201465688e+03
-2.980066412505150311e+03
-2.980284546460429738e+03
-2.980200902468703589e+03
-2.980259353206644391e+03
-2.980111588739750459e+03
-2.979545232661113005e+03
-2.980281614678463939e+03
-2.980303365392563592e+03
-2.980002742677750120e+03
-2.980182831251040625e+03
-2.980197347627627096e+03
-2.980292417789283263e+03
-2.979974517422464032e+03
-2.980253848560897950e+03
-2.980212843369215989e+03
-2.980299646657307676e+03
-2.980283474767193638e+03
-2.979629293177528325e+03
-2.980065534094390841e+03
-2.980284996400701402e+03
-2.980145263374457954e+03
-2.980258137347484535e+03
-2.980276692655708757e+03
-2.980295367476341198e+03
-2.980293162483290871e+03
-2.979857173407807750e+03
-2.980052719545111813e+03
-2.980220233002110490e+03
-2.980298625223502313e+03
-2.980216865647485065e+03
-2.980251664847151915e+03
-2.980290076195074107e+03
-2.980294810758589847e+03
-2.980275886436756537e+03
-2.980291012321183644e+03
-2.979996706484784681e+03
-2.980295271746684193e+03
-2.980171882123922842e+03
