ITEM: TIMESTEP
5280
ITEM: NUMBER OF ATOMS
8
ITEM: BOX BOUNDS xy xz yz pp pp pp
-9.8598738203143235e+00 2.5613607315592056e+01 2.2564569351176282e+00
2.0941875002685144e+00 4.1475715876280130e+00 8.0019818936636522e+00
1.1929631605542741e+00 4.3055923370457059e+00 7.7239367239652201e-01
ITEM: ATOMS id type x y z 
1 1 -4.99391 3.35438 2.10847 
2 1 -0.969424 2.43249 2.0988 
3 1 7.28407 2.8735 2.62347 
4 1 12.7535 2.79479 2.52587 
5 1 11.2843 3.48997 4.38948 
6 1 18.5323 3.79371 3.76776 
7 1 22.4848 3.28742 3.92357 
8 1 4.68871 3.71 3.677 
