ITEM: TIMESTEP
1000
ITEM: NUMBER OF ATOMS
8
ITEM: BOX BOUNDS xy xz yz pp pp pp
1.8139178622650964e-01 5.3315679568790921e+00 6.0140898224392482e-02
1.5585645904442166e-01 5.2801927596078837e+00 -4.2475821618813588e-02
1.7257600456519429e-01 5.3259794930348008e+00 -3.3316196847694178e-02
ITEM: ATOMS id type x y z 
1 1 1.56205 1.38625 1.45027 
2 1 2.81674 2.78587 0.383858 
3 1 1.42276 3.82071 4.00808 
4 1 2.70217 5.14268 2.79767 
5 1 3.8694 1.49549 4.01017 
6 1 5.26061 2.60465 2.6905 
7 1 4.17094 4.22066 1.50687 
8 1 0.254383 0.28016 5.15933 
