# LAMMPS data file written by OVITO
5 atoms
2 atom types
0.0 9.8043394 xlo xhi
0.0 10.2020168 ylo yhi
0.0 9.8934422 zlo zhi
-0.0635065 0.2794654 0.2602206 xy xz yz

Atoms # atomic

1 1 5.3485737 4.2465701 3.5645616
2 1 3.9609044 5.0116186 4.3415032
3 1 5.5080824 5.8780128 4.3802362
4 1 5.3048191 4.3847084 5.3326306
5 2 5.0298615 4.8819866 4.4026504
