# LAMMPS data file written by OVITO
5 atoms
2 atom types
0.0 9.727376 xlo xhi
0.0 10.2290449 ylo yhi
0.0 10.2269869 zlo zhi
0.2416201 0.2539599 0.2598424 xy xz yz

Atoms # atomic

1 1 5.4230933 4.2544041 3.6863001
2 1 4.0569382 5.025887 4.4864555
3 1 5.620359 5.8968936 4.5277238
4 1 5.3729363 4.3987107 5.5126086
5 2 5.1194053 4.8989892 4.5570898
