# LAMMPS data file written by OVITO
5 atoms
2 atom types
0.0 10.0760546 xlo xhi
0.0 10.1269636 ylo yhi
0.0 9.7472897 zlo zhi
-0.2818679 -0.2552531 -0.1066412 xy xz yz

Atoms # atomic

1 1 5.2108083 4.0868044 3.52052
2 1 3.7256067 4.8178034 4.2680521
3 1 5.2926755 5.6766949 4.3144698
4 1 5.0610881 4.1615996 5.2571216
5 2 4.827045 4.6846318 4.3399844
