# LAMMPS data file written by OVITO
5 atoms
2 atom types
0.0 9.9488278 xlo xhi
0.0 10.2859964 ylo yhi
0.0 9.9009 zlo zhi
-0.1174674 0.210845 -0.2674766 xy xz yz

Atoms # atomic

1 1 5.3851128 4.0946703 3.5643754
2 1 3.9659276 4.8192096 4.3485217
3 1 5.5194884 5.6997595 4.3790002
4 1 5.3234296 4.136303 5.3353653
5 2 5.0442257 4.6876898 4.4087014
