# LAMMPS data file written by OVITO
5 atoms
2 atom types
0.0 10.1367769 xlo xhi
0.0 10.1671887 ylo yhi
0.0 9.7210427 zlo zhi
-0.25909 -0.1334322 -0.2627362 xy xz yz

Atoms # atomic

1 1 5.3037505 4.0453525 3.4990373
2 1 3.817432 4.7679801 4.2637587
3 1 5.3900452 5.6330724 4.3030319
4 1 5.1748648 4.0927568 5.2406559
5 2 4.9209424 4.6321087 4.3273401
