-3.388204782697888384e-01 2.209533539384021250e-01 -2.605010020877213117e-01 2.209533539384021250e-01 8.914848276087608547e-02 6.456363464286697385e-01 -2.605010020877213117e-01 6.456363464286697385e-01 -8.990340299386773149e-01
-4.541509433368670079e-01 1.240193502024672517e-01 3.257238281045201078e-01 1.240193502024672517e-01 -6.411669304878480080e-01 -5.152410286816941909e-01 3.257238281045201078e-01 -5.152410286816941909e-01 -6.800402340817274238e-01
-7.419664451489005330e-01 6.604101991563143814e-01 6.561603750645933486e-02 6.604101991563143814e-01 -1.755474671988324908e-01 -1.200746284120734336e-01 6.561603750645933486e-02 -1.200746284120734336e-01 -4.741931774625129381e-01
1.014161148868027995e+00 1.542774357846590609e-02 3.823814416476649658e-01 1.542774357846590609e-02 1.671872527097122696e-01 -5.866358332411413662e-02 3.823814416476649658e-01 -5.866358332411413662e-02 -7.802582338035823906e-01
-3.005860199028504431e-01 2.296630086056283548e-01 2.252471254323456518e-01 2.296630086056283548e-01 -8.687945598079607201e-01 -6.577785330052694501e-01 2.252471254323456518e-01 -6.577785330052694501e-01 -4.212382298437809536e-01
-1.967440885643910731e-01 2.707359286518596364e-01 -2.953329269426718251e-01 2.707359286518596364e-01 -1.671473927789457470e-01 -4.323433744574619042e-01 -2.953329269426718251e-01 -4.323433744574619042e-01 -1.264537976152801280e+00
-1.072723113877160905e+00 -2.245144663451313360e-01 -1.583947468228508459e-01 -2.245144663451313360e-01 -1.392658993735040429e+00 -2.711907637347910072e-01 -1.583947468228508459e-01 -2.711907637347910072e-01 -7.264925415236057615e-01
-1.805200668105484185e+00 1.282772143395489173e-01 1.431594400298407121e-01 1.282772143395489173e-01 -3.901215737348201484e-01 3.244586986657252980e-01 1.431594400298407121e-01 3.244586986657252980e-01 -3.623998899964057940e-02
-1.013014378874469990e-01 7.390086927472988565e-01 -1.602370955068561920e-01 7.390086927472988565e-01 -1.372030494907908738e-01 1.977471649629582856e-02 -1.602370955068561920e-01 1.977471649629582856e-02 -5.193138860476167462e-01
-1.683216503495969407e+00 1.645610185865748198e-01 -1.022865059865173121e-01 1.645610185865748198e-01 -4.049429536648441741e-01 2.456654696785905700e-01 -1.022865059865173121e-01 2.456654696785905700e-01 -5.014921051701769911e-02
-5.201405863855730616e-02 2.974071369117672892e-02 -1.985657127293669888e-01 2.974071369117672892e-02 1.732269456346416658e-01 -4.934100974034402731e-02 -1.985657127293669888e-01 -4.934100974034402731e-02 -1.252408267508104078e+00
-8.019694010001057194e-01 -1.654883131649417458e-02 -3.112855237732050084e-01 -1.654883131649417458e-02 -3.947031026325696912e-01 1.043461962834890261e-01 -3.112855237732050084e-01 1.043461962834890261e-01 1.611509858483895496e-01
1.010558947014826847e+00 -3.089039059048282465e-01 -3.056846520865477146e-01 -3.089039059048282465e-01 -6.721037169291735891e-01 2.024971492804989726e-01 -3.056846520865477146e-01 2.024971492804989726e-01 -8.737021533325382006e-01
-1.018499510601631242e+00 -1.656611210163286552e-01 -8.723852429217625326e-02 -1.656611210163286552e-01 -5.537832714277421964e-01 7.110733764439740590e-01 -8.723852429217625326e-02 7.110733764439740590e-01 -6.724674949074850583e-02
-9.594017401940347911e-01 7.598451305039037595e-02 1.819225248025337083e-01 7.598451305039037595e-02 -3.753859550160636993e-01 -9.500225766613912270e-02 1.819225248025337083e-01 -9.500225766613912270e-02 -3.427850631278439031e-01
-6.647230476923042808e-01 -2.786226492701678881e-01 2.310555514104002325e-02 -2.786226492701678881e-01 -3.330181187373424945e-01 1.079420279327892446e-01 2.310555514104002325e-02 1.079420279327892446e-01 -7.918432628023354125e-01
1.578892718606128009e-01 1.691949583710473104e-01 -1.210379377005998125e-01 1.691949583710473104e-01 -1.195181481296856835e-01 -4.174796432891605957e-01 -1.210379377005998125e-01 -4.174796432891605957e-01 -5.539995217671825900e-01
6.648467214791269064e-02 -1.893727502243784666e-01 3.003966179071195786e-01 -1.893727502243784666e-01 -5.295434971520887046e-01 -3.263162358316640255e-01 3.003966179071195786e-01 -3.263162358316640255e-01 -6.787076718963517274e-01
-3.788116434792108134e-01 -5.507762597948795760e-03 7.463417564725909059e-02 -5.507762597948795760e-03 1.107472320675544769e-01 4.396897303724658229e-02 7.463417564725909059e-02 4.396897303724658229e-02 -1.080293366417739209e+00
1.041897207501370826e+00 -1.942880858609224437e-01 1.084431389996205197e-01 -1.942880858609224437e-01 8.381953796016068381e-01 -4.246907383668395153e-01 1.084431389996205197e-01 -4.246907383668395153e-01 -1.491183959214230081e-01
-6.585934405389279878e-01 1.430447506531405399e-01 -3.109317861045459153e-01 1.430447506531405399e-01 -6.507152339225118487e-01 -7.902654563643637942e-02 -3.109317861045459153e-01 -7.902654563643637942e-02 -3.033172896693357989e-01
-7.691916332882834384e-01 -2.397475971909690806e-01 -3.281155491444473493e-01 -2.397475971909690806e-01 -1.839627738121261402e-01 2.404926732649533827e-01 -3.281155491444473493e-01 2.404926732649533827e-01 6.988350077176008757e-01
6.910394316139946147e-01 -2.938312196016131805e-01 1.816367437327239542e-01 -2.938312196016131805e-01 9.863315173358632171e-01 -1.776622138343267321e-01 1.816367437327239542e-01 -1.776622138343267321e-01 4.192588781669879805e-01
-4.199274745046425172e-01 4.742201766346340608e-01 -1.509086284211083040e-01 4.742201766346340608e-01 -3.720612233472772590e-01 3.260364686713749238e-01 -1.509086284211083040e-01 3.260364686713749238e-01 -1.564137829995881246e+00
-1.190189720099634973e+00 -9.218208394933831429e-02 -4.946290290227266934e-02 -9.218208394933831429e-02 -5.963095053661977563e-01 -5.118933040439566096e-01 -4.946290290227266934e-02 -5.118933040439566096e-01 -7.762596928044698807e-02
3.907963885072891497e-01 1.740357566341159401e-01 -1.052197647728459196e-01 1.740357566341159401e-01 -8.226554522934663716e-01 2.005514611671085634e-01 -1.052197647728459196e-01 2.005514611671085634e-01 -6.677892227257209434e-01
1.324154794799356161e+00 4.051219081686339152e-01 1.837269336824458657e-02 4.051219081686339152e-01 9.701221042306555908e-01 2.803761434768622385e-01 1.837269336824458657e-02 2.803761434768622385e-01 -2.938436815930168255e-01
-6.177970389170351906e-01 -2.841858336185396627e-01 2.591814721796483201e-01 -2.841858336185396627e-01 -2.798465384198727812e-01 5.131584055164571667e-02 2.591814721796483201e-01 5.131584055164571667e-02 9.005650528368284169e-01
-7.156730829578893394e-01 -3.828982207331923376e-02 -4.500122190682274703e-01 -3.828982207331923376e-02 -9.376673192573672377e-01 1.818703734041038633e-01 -4.500122190682274703e-01 1.818703734041038633e-01 -4.703254585943422716e-01
-2.302034553208212930e+00 -6.253786586166151240e-01 4.540869465603211697e-02 -6.253786586166151240e-01 -1.854254595792437010e+00 -5.702641050459791340e-03 4.540869465603211697e-02 -5.702641050459791340e-03 -1.233649544038087464e+00
-8.463709595120397777e-01 2.595019923967860076e-01 4.124034312971476823e-01 2.595019923967860076e-01 -1.973946514914613204e-01 -1.086166949057464082e-01 4.124034312971476823e-01 -1.086166949057464082e-01 -7.529097999489637871e-01
-3.858772812269220531e-02 5.841529962647313834e-01 5.664907363290468956e-01 5.841529962647313834e-01 3.694437699718535750e-01 -5.620833203055681793e-01 5.664907363290468956e-01 -5.620833203055681793e-01 -3.887051006754723148e-01
-9.099995722631387673e-01 -6.060505827340995771e-02 -3.452803327355507407e-02 -6.060505827340995771e-02 -6.761052591841562043e-01 -2.789330475444506616e-02 -3.452803327355507407e-02 -2.789330475444506616e-02 -1.687766923169952971e-01
-3.754772346947137796e-01 -4.137336755930732246e-01 2.501138342730858111e-01 -4.137336755930732246e-01 -5.114838208840842837e-01 4.799222792415563238e-02 2.501138342730858111e-01 4.799222792415563238e-02 -1.209615520412589580e-02
-1.350975054578580914e-01 1.352472889441819759e-01 8.433527200993909401e-02 1.352472889441819759e-01 -2.917843306864731923e-01 1.497836863018363329e-01 8.433527200993909401e-02 1.497836863018363329e-01 -3.889771151516511760e-01
-1.713409120166247801e+00 -3.301388893529896840e-01 -5.587476541753644277e-02 -3.301388893529896840e-01 -5.723592813299738236e-01 9.892595096239799324e-02 -5.587476541753644277e-02 9.892595096239799324e-02 2.209318524743343337e-01
-6.484969649668339553e-01 -5.003923254855389136e-01 -2.894579204595095212e-01 -5.003923254855389136e-01 1.049332095321622443e-01 1.945287955936687019e-01 -2.894579204595095212e-01 1.945287955936687019e-01 6.530019346587316864e-01
-8.594917199467876356e-01 2.831042230451085717e-01 -4.029846897953660162e-02 2.831042230451085717e-01 -3.398563837123863562e-01 2.840952623718744907e-01 -4.029846897953660162e-02 2.840952623718744907e-01 -2.306326024385077778e-01
-3.104771838201243472e-01 2.440156752067389467e-01 -4.687827937510936627e-01 2.440156752067389467e-01 -1.559085848795179752e+00 1.553630227352559845e-01 -4.687827937510936627e-01 1.553630227352559845e-01 -1.274931091625251423e+00
1.453628595379625965e+00 -6.888411941284829920e-01 -2.845430568254469494e-01 -6.888411941284829920e-01 -1.244076667630411137e+00 -2.603579480976002392e-02 -2.845430568254469494e-01 -2.603579480976002392e-02 -5.992173626976330381e-01
-7.915839622671805298e-01 2.717328558628959168e-01 -8.723651616355559274e-03 2.717328558628959168e-01 -6.566954117538495450e-02 -2.694033135953718960e-01 -8.723651616355559274e-03 -2.694033135953718960e-01 -8.255896814004658191e-02
-3.703538492830619200e-01 -3.114717890254497523e-01 2.062821993329270465e-01 -3.114717890254497523e-01 -8.348488965313995980e-01 -3.339712521719119809e-01 2.062821993329270465e-01 -3.339712521719119809e-01 -1.005059188788909541e+00
1.316267985719765665e+00 5.643424289829085394e-01 -1.148162790513359011e-01 5.643424289829085394e-01 1.668232289121491796e+00 9.457488846165365559e-02 -1.148162790513359011e-01 9.457488846165365559e-02 1.433793261406851149e+00
-4.452043261137743069e-01 -1.733231404772837270e-01 1.478902437092042277e-01 -1.733231404772837270e-01 -1.004693916038530643e+00 -3.228133427837012737e-01 1.478902437092042277e-01 -3.228133427837012737e-01 -1.573750288444922152e+00
-1.626725203969441980e+00 -4.031998612250884961e-01 -3.673869533295930911e-01 -4.031998612250884961e-01 -1.062445411878930157e+00 7.720131241957653434e-02 -3.673869533295930911e-01 7.720131241957653434e-02 -1.482864537235977220e+00
9.394288725179780752e-02 -2.964384316911956585e-01 7.107484392557091024e-02 -2.964384316911956585e-01 -2.971373373334533774e-01 -9.321331854861923671e-02 7.107484392557091024e-02 -9.321331854861923671e-02 -5.431496680061060900e-01
2.095275731477344583e-01 -1.067960463559640936e-02 -2.503441617376002681e-01 -1.067960463559640936e-02 -1.469466276285522399e+00 -2.967072788302285713e-01 -2.503441617376002681e-01 -2.967072788302285713e-01 -3.040093113204542785e-01
-1.528786359020236907e-01 2.645826346658396444e-01 1.135125497048689591e-01 2.645826346658396444e-01 -3.362643655860809710e-01 2.012816820555828889e-01 1.135125497048689591e-01 2.012816820555828889e-01 -5.106929849887135164e-01
-3.729917266715703783e-01 1.790983423093442106e-01 -3.548889194745400433e-01 1.790983423093442106e-01 -7.686882558748006078e-01 -9.179628576265466688e-02 -3.548889194745400433e-01 -9.179628576265466688e-02 -1.389437994836241197e-01
-3.323259181939238194e-01 -1.121078681543005301e-01 1.102907284086823009e-01 -1.121078681543005301e-01 -6.593788919040579621e-01 -3.584597666885341316e-01 1.102907284086823009e-01 -3.584597666885341316e-01 1.706860132185263890e-01
1.021962829335182565e+00 -5.997951585791225781e-01 -2.854981287259019118e-01 -5.997951585791225781e-01 -1.910318709182552976e-01 6.024272459875734675e-02 -2.854981287259019118e-01 6.024272459875734675e-02 2.356682393399279485e-01
1.721405035900433478e-01 -4.259428166081500981e-03 4.123540833007541817e-01 -4.259428166081500981e-03 -1.467265800980653845e-01 -5.273911021180961445e-01 4.123540833007541817e-01 -5.273911021180961445e-01 2.173539895262995014e-01
-2.446048698232988761e-01 -2.902435223591616764e-01 -1.375910442963257097e-01 -2.902435223591616764e-01 -5.797014428186711976e-01 6.981433670686193471e-02 -1.375910442963257097e-01 6.981433670686193471e-02 -4.396922391831657728e-02
-1.667904405734988327e+00 -2.039826872400926916e-01 4.829779190476151535e-02 -2.039826872400926916e-01 -1.388769505112843916e+00 -3.586563742451384304e-03 4.829779190476151535e-02 -3.586563742451384304e-03 -4.130526404143856634e-01
9.255051508103133706e-01 -1.195236850453630234e-01 7.215861734658028659e-02 -1.195236850453630234e-01 -7.292249370975888434e-01 5.577443275609321738e-01 7.215861734658028659e-02 5.577443275609321738e-01 -1.081209572668687890e+00
1.391887144749789224e-02 2.355705505447145409e-01 1.099486005000127886e-01 2.355705505447145409e-01 -2.057187994540770615e-01 -2.628152231724046328e-01 1.099486005000127886e-01 -2.628152231724046328e-01 -1.068472638241750178e-01
-4.235357192746206367e-01 4.577089984622569885e-01 -3.362020235837667181e-01 4.577089984622569885e-01 -1.148539870491034787e+00 -9.209923184975347954e-02 -3.362020235837667181e-01 -9.209923184975347954e-02 -1.377855366744136667e+00
-1.691713426667674769e+00 -1.133017315898586230e-01 1.215896239035707364e-02 -1.133017315898586230e-01 -1.001682911070038040e+00 -4.138284592684793317e-01 1.215896239035707364e-02 -4.138284592684793317e-01 -1.604398840266126225e+00
-1.797636788253918816e+00 -5.242988914663625905e-02 1.021649308704279807e-01 -5.242988914663625905e-02 -2.077860130774846770e+00 1.090612835482851345e-01 1.021649308704279807e-01 1.090612835482851345e-01 -1.509787221265618262e+00
3.128642585817490995e-01 4.685022160241833489e-01 4.310039905027870932e-02 4.685022160241833489e-01 -5.779123202528465564e-01 -1.644106839361462180e-01 4.310039905027870932e-02 -1.644106839361462180e-01 -1.301994077304679642e+00
1.200581916004836103e+00 6.897426955824782491e-01 2.700556117957863544e-01 6.897426955824782491e-01 1.212581976219038404e+00 -1.632112329201058365e-01 2.700556117957863544e-01 -1.632112329201058365e-01 -2.530369374899185675e-01
5.592947762676858670e-01 2.393921880513233402e-02 -1.861771510545250086e-01 2.393921880513233402e-02 -5.817006970640344055e-02 -4.420004460788577033e-02 -1.861771510545250086e-01 -4.420004460788577033e-02 1.083384344622777995e+00
-1.552176297510166947e+00 2.307376443278082723e-01 4.289013342417331009e-01 2.307376443278082723e-01 -7.364070308227057549e-01 -1.535110491663773183e-02 4.289013342417331009e-01 -1.535110491663773183e-02 -4.092539227656512568e-01
7.038950798291851996e-01 4.854556040481487755e-02 -2.184208762314655133e-02 4.854556040481487755e-02 -2.860021904028177131e-01 -1.275881358399409415e-01 -2.184208762314655133e-02 -1.275881358399409415e-01 1.572531243885949837e-01
-5.707440903712206470e-01 2.546854365025751910e-01 -8.683464764612193465e-02 2.546854365025751910e-01 -8.276526230576827237e-01 -1.742505949136234633e-01 -8.683464764612193465e-02 -1.742505949136234633e-01 -7.965645073451499414e-01
-1.012554732580663197e+00 4.791918514668265239e-01 -5.395813518924271746e-01 4.791918514668265239e-01 -4.337520847875831476e-01 8.903887796278991962e-02 -5.395813518924271746e-01 8.903887796278991962e-02 -5.768373838864915282e-01
1.367569676059164907e+00 -1.580783491824739595e-01 1.011587702101941905e-01 -1.580783491824739595e-01 6.205778877890402168e-01 -6.856183855965085616e-01 1.011587702101941905e-01 -6.856183855965085616e-01 1.537073055860585180e+00
1.124864869180034033e+00 -2.701421772072041053e-02 -2.982990230189694336e-01 -2.701421772072041053e-02 -2.396677410484907567e-01 5.054701056326412756e-01 -2.982990230189694336e-01 5.054701056326412756e-01 6.862047174655548920e-01
3.654289364596413070e-01 -3.285775591247221405e-01 -9.131747791147756810e-02 -3.285775591247221405e-01 -4.308709582045458508e-01 4.330839601447631360e-01 -9.131747791147756810e-02 4.330839601447631360e-01 7.483455087457202559e-02
-7.400558485422050747e-01 -3.314465854580391779e-01 1.591929690891138449e-01 -3.314465854580391779e-01 -2.995220103621810126e-01 -2.220559170599716581e-01 1.591929690891138449e-01 -2.220559170599716581e-01 -2.260828588250157201e-01
-5.763923970946045472e-01 1.435019643004694090e-01 5.780415401703324629e-02 1.435019643004694090e-01 7.967152406986137414e-02 -1.005825050624195721e-01 5.780415401703324629e-02 -1.005825050624195721e-01 -6.610357064828106255e-01
1.615806507104846079e-01 -1.949616181331126075e-01 1.639405135410893777e-01 -1.949616181331126075e-01 8.355215661687472872e-01 1.035011646845791083e-01 1.639405135410893777e-01 1.035011646845791083e-01 -5.808585466992780694e-02
1.250698982525561553e-01 5.084310769402379249e-01 1.654569505975115110e-02 5.084310769402379249e-01 6.768743023276122539e-01 5.535463652908803427e-03 1.654569505975115110e-02 5.535463652908803427e-03 -1.376278682768325101e+00
-1.188317582393258354e+00 5.840026341284170197e-01 -2.552484067854304123e-02 5.840026341284170197e-01 -3.431858166678361521e-01 -5.032488801472458917e-01 -2.552484067854304123e-02 -5.032488801472458917e-01 -7.576112855641847776e-01
8.174519823490420389e-01 2.503340716102876451e-01 1.226966887970930564e-01 2.503340716102876451e-01 2.918561456282721123e-01 -2.523127022985827139e-02 1.226966887970930564e-01 -2.523127022985827139e-02 -1.941345036728253204e+00
-6.970154768216891839e-01 -5.488738882851470491e-01 -1.856520994051044926e-01 -5.488738882851470491e-01 -1.043571801075082295e+00 -2.068885700473054035e-01 -1.856520994051044926e-01 -2.068885700473054035e-01 -8.922393734835409873e-01
-2.113147427703286674e+00 8.485071904157137634e-02 1.386315876545680774e-02 8.485071904157137634e-02 -1.609923782467509001e+00 3.179473738826502083e-01 1.386315876545680774e-02 3.179473738826502083e-01 -1.478758600363313525e+00
4.868603329086763631e-01 3.687081743309599258e-01 -2.120606003455286492e-01 3.687081743309599258e-01 9.897516446781515209e-02 -2.797431749389593381e-01 -2.120606003455286492e-01 -2.797431749389593381e-01 -3.357226004205212111e-01
-2.604015441108596396e-01 1.146831480587059138e-01 3.843478806519907698e-01 1.146831480587059138e-01 -1.347868851471242246e-01 2.301367545648054791e-01 3.843478806519907698e-01 2.301367545648054791e-01 -5.702129149844035183e-01
-1.531224576200056475e+00 5.346380890285299392e-01 2.598589802845679420e-01 5.346380890285299392e-01 -3.238824638004996759e-01 -4.965249422357773668e-01 2.598589802845679420e-01 -4.965249422357773668e-01 -1.321929219729424565e+00
-3.550897152667472495e-02 2.332074558919083537e-02 1.065837695735331186e-01 2.332074558919083537e-02 -1.557097652295729162e-01 2.462743821343089945e-01 1.065837695735331186e-01 2.462743821343089945e-01 3.738145944435211643e-01
-4.918547252811638626e-01 -1.669442930411843828e-01 7.770916009414284564e-02 -1.669442930411843828e-01 -7.817080347994683764e-01 -3.216527963147673419e-01 7.770916009414284564e-02 -3.216527963147673419e-01 -2.925831503088300867e-01
-1.175002829810003480e+00 -4.840274639867553352e-02 -6.561157520795507514e-01 -4.840274639867553352e-02 -2.056734865300311466e-01 2.722728798344124512e-01 -6.561157520795507514e-01 2.722728798344124512e-01 -8.205430844696298687e-02
-9.321658610913340359e-01 -3.091145821826604689e-02 9.993291982582624966e-02 -3.091145821826604689e-02 -9.520804337866772826e-01 -6.423654539463418134e-01 9.993291982582624966e-02 -6.423654539463418134e-01 -1.374893424000945830e+00
-1.025654921224818716e+00 -2.091717387505183379e-01 -7.263244225057262360e-02 -2.091717387505183379e-01 -7.063079293303460293e-01 -2.829900002641471124e-01 -7.263244225057262360e-02 -2.829900002641471124e-01 -7.108767256191292905e-01
-8.224617223625446671e-01 -2.187431437710793125e-01 6.004546633933597471e-02 -2.187431437710793125e-01 -6.908683401351972675e-01 4.825615657371444267e-01 6.004546633933597471e-02 4.825615657371444267e-01 -1.253157059156626119e+00
-9.657471175970576693e-01 -2.581266119974593432e-01 -5.463299664804649458e-02 -2.581266119974593432e-01 -4.853031073839023058e-05 1.439712590734399389e-01 -5.463299664804649458e-02 1.439712590734399389e-01 -2.006971369002875649e-01
-1.165075686721088966e+00 3.333999504648085255e-01 2.746144797804785098e-02 3.333999504648085255e-01 -7.760831180485378011e-01 -2.527035334576571701e-01 2.746144797804785098e-02 -2.527035334576571701e-01 -1.202632997627373745e+00
2.651266236161707868e-01 -3.170214658176629952e-01 2.402208611258211113e-01 -3.170214658176629952e-01 -8.665091345521517274e-01 -9.361581989794647007e-02 2.402208611258211113e-01 -9.361581989794647007e-02 5.419505872666091628e-01
-1.669284376125757197e+00 -1.825809790599694227e-01 -6.528162095554147781e-02 -1.825809790599694227e-01 -1.463422312985759088e+00 -5.137386074262687563e-01 -6.528162095554147781e-02 -5.137386074262687563e-01 -1.970621773777736729e+00
-1.149506225723137542e-01 1.451937735810477359e-01 -2.868521733707411481e-01 1.451937735810477359e-01 -5.592148628176836223e-01 -2.789482687027938224e-01 -2.868521733707411481e-01 -2.789482687027938224e-01 1.611273388544538221e-01
-1.764856907098682759e-01 2.724705899612653859e-01 7.440059172265474363e-02 2.724705899612653859e-01 -5.760292956350635540e-01 -1.514137966460258888e-01 7.440059172265474363e-02 -1.514137966460258888e-01 -9.121922920420485470e-01
-2.481717589239728627e-01 2.882004498152825889e-01 1.769171007733619794e-01 2.882004498152825889e-01 -6.122408618368537780e-01 1.580413265466806827e-01 1.769171007733619794e-01 1.580413265466806827e-01 -1.380329809072048164e+00
-1.765788557770184397e+00 -7.194569235496459103e-02 -1.834522509082509301e-01 -7.194569235496459103e-02 -1.454607345967251497e+00 1.795536467085903365e-01 -1.834522509082509301e-01 1.795536467085903365e-01 -2.128245799013873008e+00
2.875062401086928010e-01 -2.408577720472854233e-02 -4.322104791505936294e-01 -2.408577720472854233e-02 4.654098371850898253e-02 5.300009816887416569e-01 -4.322104791505936294e-01 5.300009816887416569e-01 6.611360311721963257e-01
-3.740179766707649178e-01 9.115532763703897146e-02 -2.351690276032454840e-01 9.115532763703897146e-02 -1.044322869213438532e+00 -1.736244779097183277e-01 -2.351690276032454840e-01 -1.736244779097183277e-01 -8.260940123653338629e-01
-8.196265272403175928e-01 4.018564702427918078e-01 2.408863430995632493e-01 4.018564702427918078e-01 -4.776123280096885027e-01 1.092433490270212498e-01 2.408863430995632493e-01 1.092433490270212498e-01 -8.200183446958158040e-01
-1.675249498977476534e-02 -4.947550094299862367e-01 1.613613379277668292e-01 -4.947550094299862367e-01 3.916923200387092963e-02 3.780375006055011061e-02 1.613613379277668292e-01 3.780375006055011061e-02 8.025520848431381138e-01
-4.827369200427725215e-01 -2.949363978154749821e-01 1.690987467220929352e-01 -2.949363978154749821e-01 -4.982322855063545108e-01 -5.453412688768063399e-01 1.690987467220929352e-01 -5.453412688768063399e-01 8.692526742972765674e-02
-7.973790107302322072e-01 -2.203839947136282118e-01 1.523750724459983497e-01 -2.203839947136282118e-01 2.380464160726449285e-01 1.785887102122201142e-01 1.523750724459983497e-01 1.785887102122201142e-01 3.019736747426899903e-01
-5.996270613199540245e-01 -3.167838144426622371e-01 2.680722040491258507e-01 -3.167838144426622371e-01 -9.262322224884682320e-02 9.043602890513503800e-02 2.680722040491258507e-01 9.043602890513503800e-02 -8.625938622968089275e-02
-4.657289532375472607e-01 -2.702261074873094637e-01 -4.062973055952489587e-01 -2.702261074873094637e-01 5.124279046635773181e-03 -2.942247616282002154e-01 -4.062973055952489587e-01 -2.942247616282002154e-01 -7.489811245972492239e-03
-1.567887883392441228e+00 -1.720660709411319655e-01 -3.170230463935409526e-01 -1.720660709411319655e-01 -1.650792683785980541e+00 -3.159546971164126083e-01 -3.170230463935409526e-01 -3.159546971164126083e-01 -5.953504962318084681e-01
-8.082046762194597944e-01 -2.976366991115121374e-01 4.881379101866277492e-02 -2.976366991115121374e-01 3.225208217024735924e-02 -2.711877278814598530e-02 4.881379101866277492e-02 -2.711877278814598530e-02 1.925106632294817655e-01
2.522522471138052315e-03 5.493698352564940074e-02 2.029617747838272090e-01 5.493698352564940074e-02 -7.093935009056907548e-01 5.828193679550753431e-02 2.029617747838272090e-01 5.828193679550753431e-02 -1.384423260544218826e+00
-1.511760803026487854e-01 3.694270074597794107e-01 -5.288949540306573383e-01 3.694270074597794107e-01 4.443513702677550081e-01 3.865732710900052771e-01 -5.288949540306573383e-01 3.865732710900052771e-01 -2.226054807589752660e-01
-6.437904346422246293e-01 -6.778508063373769876e-02 9.755492853231383099e-02 -6.778508063373769876e-02 -3.552304764406972737e-01 2.124396012351081886e-01 9.755492853231383099e-02 2.124396012351081886e-01 -5.648297214322247628e-01
5.081583490966528061e-01 -1.680284202329936430e-02 2.358492024474149740e-01 -1.680284202329936430e-02 -9.176514242342356242e-01 -1.511633337280784140e-01 2.358492024474149740e-01 -1.511633337280784140e-01 -3.241044654238184886e-01
-1.352620509662345150e+00 -2.914850926302344769e-01 3.184480972512385710e-01 -2.914850926302344769e-01 -1.145051625720961530e+00 4.680834135385557315e-02 3.184480972512385710e-01 4.680834135385557315e-02 -1.075949290621233123e+00
-2.082042454169603096e-01 -3.028942058192723441e-01 -6.705253743681986733e-02 -3.028942058192723441e-01 3.242339531054737045e-01 1.125156951094969937e-01 -6.705253743681986733e-02 1.125156951094969937e-01 4.512611483175552052e-02
-9.232356293540255887e-01 1.532490215578317660e-01 3.097149798403353582e-01 1.532490215578317660e-01 -1.506786513495026458e+00 -6.943543224886461473e-01 3.097149798403353582e-01 -6.943543224886461473e-01 -6.891971799774612162e-01
-7.936585955631469957e-01 -3.523603467950199852e-01 1.317476170487654197e-01 -3.523603467950199852e-01 -5.190376810376435834e-01 -3.251591208331783278e-01 1.317476170487654197e-01 -3.251591208331783278e-01 -1.463492040468601096e-01
1.256562937515503631e+00 9.190251807822619190e-02 -1.066748841623080535e-01 9.190251807822619190e-02 8.893660852214687607e-01 3.140278583419675029e-01 -1.066748841623080535e-01 3.140278583419675029e-01 -1.011360223941626946e-01
-1.965328268338269346e+00 -6.436077075113723067e-01 -1.082029902230248614e-01 -6.436077075113723067e-01 -1.790982170901779469e+00 -4.348920546412834987e-02 -1.082029902230248614e-01 -4.348920546412834987e-02 -7.680622762879625309e-01
-1.445435720609160368e+00 1.836524701340029320e-01 3.781790386936715875e-01 1.836524701340029320e-01 -1.281096157017558301e+00 -3.210674314704929366e-01 3.781790386936715875e-01 -3.210674314704929366e-01 -8.721200937628530436e-01
-4.682127646851436120e-01 -3.291538004138289675e-01 -3.280108901530242593e-01 -3.291538004138289675e-01 3.579306339133165316e-01 3.622181309178470476e-01 -3.280108901530242593e-01 3.622181309178470476e-01 -2.371212188826334055e-01
6.934568331961621368e-01 3.608065902450681706e-01 -1.401786213394720093e-01 3.608065902450681706e-01 9.181497793858458545e-01 3.105427031643442221e-03 -1.401786213394720093e-01 3.105427031643442221e-03 8.918022581829743167e-01
-1.491557468406139453e+00 -4.986219935464075159e-01 6.889153886238011393e-02 -4.986219935464075159e-01 -5.569925838531121220e-01 1.597796134754150554e-01 6.889153886238011393e-02 1.597796134754150554e-01 -4.180412027948604559e-01
9.721185286560704575e-02 -5.365368510682258507e-02 1.727341759604512084e-01 -5.365368510682258507e-02 -2.599400894970752551e-01 -1.946446380652064878e-01 1.727341759604512084e-01 -1.946446380652064878e-01 -4.157906356221678923e-01
-2.655571773515211786e-01 5.487700538143451823e-01 2.456457001937041307e-01 5.487700538143451823e-01 -1.560280674828515013e-01 -4.817420684299170697e-01 2.456457001937041307e-01 -4.817420684299170697e-01 -1.030336646227071329e+00
-8.402353433037331731e-01 3.151587617093062899e-01 -2.331209790124216530e-01 3.151587617093062899e-01 -1.321661324527987791e+00 3.639639348230150340e-02 -2.331209790124216530e-01 3.639639348230150340e-02 -9.260852041384126654e-01
4.128268483299295244e-02 -1.030613459885520722e-01 -5.417752556189822100e-01 -1.030613459885520722e-01 3.471802999167325487e-01 3.905549301601101142e-01 -5.417752556189822100e-01 3.905549301601101142e-01 1.420562120033125597e-01
-8.070727559960324538e-01 1.954607230497669434e-01 1.668498003353664164e-03 1.954607230497669434e-01 -1.500320848331600232e-01 -3.056890756140072107e-01 1.668498003353664164e-03 -3.056890756140072107e-01 -1.500782536918277454e+00
-8.012924506110887801e-01 -2.176468570170737304e-01 1.787507375385585795e-01 -2.176468570170737304e-01 -3.360789991204792826e-01 -2.739506701479467177e-01 1.787507375385585795e-01 -2.739506701479467177e-01 -8.207195350279445911e-01
-1.130483804995134456e+00 -9.637070041390186081e-02 2.948260182666671558e-01 -9.637070041390186081e-02 -3.110359933679572864e-01 3.707933097257326560e-02 2.948260182666671558e-01 3.707933097257326560e-02 -2.551778554809002730e-01
-2.795638228233292000e-01 -6.675701313617251609e-01 3.894371882799321782e-01 -6.675701313617251609e-01 5.397547079912089207e-02 -3.532855735856096913e-01 3.894371882799321782e-01 -3.532855735856096913e-01 1.393856463247837851e+00
-1.267105408199355132e+00 -6.502348876304671343e-02 -1.351211554583034713e-01 -6.502348876304671343e-02 -4.893300808387064382e-01 3.955550044332385717e-02 -1.351211554583034713e-01 3.955550044332385717e-02 5.983095664764376265e-01
-1.484454760779934324e+00 1.720405582601744476e-01 -4.207052186004354710e-01 1.720405582601744476e-01 -8.946759414394332977e-01 2.965446941979351103e-01 -4.207052186004354710e-01 2.965446941979351103e-01 -1.382979266690042675e+00
-8.093271387929665828e-01 -2.289478467854484944e-01 -6.969938463346848911e-02 -2.289478467854484944e-01 -6.517713972041680459e-02 4.698994183623719789e-01 -6.969938463346848911e-02 4.698994183623719789e-01 3.130047001223710268e-01
-6.285393558632584865e-01 1.338817232512745647e-01 -2.724024934470516413e-01 1.338817232512745647e-01 -5.547548390089980241e-01 4.473086898032803405e-02 -2.724024934470516413e-01 4.473086898032803405e-02 3.088811667822671247e-01