9.855079999999999529e+01 1.331359999999999957e+02 4.361829999999999785e+01 9.924760000000000559e+01 1.340639999999999930e+02 4.364090000000000202e+01 9.604330000000000211e+01 1.323940000000000055e+02 4.045580000000000354e+01 9.683209999999999695e+01 1.332350000000000136e+02 4.068460000000000321e+01 1.018790000000000049e+02 1.295529999999999973e+02 4.311619999999999919e+01 1.009549999999999983e+02 1.292150000000000034e+02 4.255030000000000001e+01
1.181400000000000006e+02 1.352069999999999936e+02 3.632189999999999941e+01 1.179270000000000067e+02 1.345080000000000098e+02 3.552150000000000318e+01 1.256949999999999932e+02 1.357820000000000107e+02 3.597800000000000153e+01 1.251830000000000069e+02 1.365879999999999939e+02 3.625780000000000314e+01 1.203569999999999993e+02 1.382640000000000100e+02 3.760860000000000269e+01 1.209260000000000019e+02 1.375790000000000077e+02 3.683299999999999841e+01
