-8.940320434526343888e+03
-8.939261790973298048e+03
