4.237009644245868678e+00 5.642955200671529781e+00 1.370963740986326229e-01 -4.235103273938318758e+00 -5.640520931419268358e+00 -1.352346381456522584e-01 5.699927406156778176e+00 6.079239407260118355e+00 1.651122837406667099e+00 -5.702085076108084571e+00 -6.080878177128520967e+00 -1.652728080087075613e+00 -3.362484158602611295e+00 -1.230306954357700322e+00 -2.058766392228831066e+00 3.362735458246368658e+00 1.229511506395909004e+00 2.058509950378326625e+00
7.250992310492864190e-01 2.356062509700467267e+00 2.689118149959950355e+00 -7.190200113881002331e-01 -2.351452984149822178e+00 -2.689035771807853248e+00 1.321337152129037484e+01 -2.080256070177107119e+01 -7.222321216862493287e+00 -1.321489597990277787e+01 2.080341549079873076e+01 7.222932882355124207e+00 4.326417655765563808e+00 -5.206761342655497948e+00 -5.895680675515318825e+00 -4.330972468236415018e+00 5.201297079499261677e+00 5.894986631870590799e+00
