-3.011191177950694964e+03
-3.010872159604071840e+03
