LAMMPS (16 Mar 2018)
clear
units 	metal
dimension	3
boundary	p	p    p
atom_style	atomic
box         tilt large
read_data   conf.lmp
  triclinic box = (0 0 0) to (2.94168 2.54757 2.40187) with tilt (1.47084 1.47084 0.849191)
  1 by 1 by 1 MPI processor grid
  reading atoms ...
  1 atoms
mass            1 1
neigh_modify    every 1 delay 0 check no
pair_style deepmd frozen_model.pb
pair_coeff
compute         mype all pe
thermo          100
thermo_style    custom step pe pxx pyy pzz pxy pxz pyz lx ly lz vol c_mype
dump            1 all custom 100 dump.relax id type xs ys zs fx fy fz
min_style       cg
minimize        1.000000e-12 1.000000e-06 5000 500000
WARNING: Using 'neigh_modify every 1 delay 0 check yes' setting during minimization (../min.cpp:168)
Neighbor list info ...
  update every 1 steps, delay 0 steps, check yes
  max neighbors/atom: 2000, page size: 100000
  master list distance cutoff = 10
  ghost atom cutoff = 10
  binsize = 5, bins = 2 1 1
  1 neighbor lists, perpetual/occasional/extra = 1 0 0
  (1) pair deepmd, perpetual
      attributes: , newton on
      pair build: full/bin/atomonly
      stencil: full/bin/3d
      bin: standard
Per MPI rank memory allocation (min/avg/max) = 5.169 | 5.169 | 5.169 Mbytes
Step PotEng Pxx Pyy Pzz Pxy Pxz Pyz Lx Ly Lz Volume c_mype 
       0   -3.1587997   -203453.07   -203453.06   -203453.07  0.015450877  0.010925407 -0.009876744     2.941683     2.547572     2.401874    18.000002   -3.1587997 
       1   -3.1587997   -203453.07   -203453.06   -203453.07  0.015450877  0.010925407 -0.009876744     2.941683     2.547572     2.401874    18.000002   -3.1587997 
Loop time of 0.0150988 on 1 procs for 1 steps with 1 atoms

183.1% CPU use with 1 MPI tasks x no OpenMP threads

Minimization stats:
  Stopping criterion = quadratic factors are zero
  Energy initial, next-to-last, final = 
        -3.15879972883     -3.15879972883     -3.15879972883
  Force two-norm initial, final = 2.77556e-17 6.20634e-17
  Force max component initial, final = 2.77556e-17 5.55112e-17
  Final line search alpha, max atom move = 1 5.55112e-17
  Iterations, force evaluations = 1 2

MPI task timing breakdown:
Section |  min time  |  avg time  |  max time  |%varavg| %total
---------------------------------------------------------------
Pair    | 0.014902   | 0.014902   | 0.014902   |   0.0 | 98.70
Neigh   | 0          | 0          | 0          |   0.0 |  0.00
Comm    | 3.5286e-05 | 3.5286e-05 | 3.5286e-05 |   0.0 |  0.23
Output  | 0          | 0          | 0          |   0.0 |  0.00
Modify  | 0          | 0          | 0          |   0.0 |  0.00
Other   |            | 0.0001614  |            |       |  1.07

Nlocal:    1 ave 1 max 1 min
Histogram: 1 0 0 0 0 0 0 0 0 0
Nghost:    999 ave 999 max 999 min
Histogram: 1 0 0 0 0 0 0 0 0 0
Neighs:    0 ave 0 max 0 min
Histogram: 1 0 0 0 0 0 0 0 0 0

Total # of neighbors = 0
Ave neighs/atom = 0
Neighbor list builds = 0
Dangerous builds not checked
variable        N equal count(all)
variable        V equal vol
variable        E equal "c_mype"
variable        tmplx equal lx
variable        tmply equal ly
variable        Pxx equal pxx
variable        Pyy equal pyy
variable        Pzz equal pzz
variable        Pxy equal pxy
variable        Pxz equal pxz
variable        Pyz equal pyz
variable        Epa equal ${E}/${N}
variable        Epa equal -3.15879972883027/${N}
variable        Epa equal -3.15879972883027/1
variable        Vpa equal ${V}/${N}
variable        Vpa equal 18.000002220505/${N}
variable        Vpa equal 18.000002220505/1
variable        AA equal (${tmplx}*${tmply})
variable        AA equal (2.941683*${tmply})
variable        AA equal (2.941683*2.547572)
print "All done"
All done
print "Total number of atoms = ${N}"
Total number of atoms = 1
print "Final energy per atoms = ${Epa}"
Final energy per atoms = -3.15879972883027
print "Final volume per atoms = ${Vpa}"
Final volume per atoms = 18.000002220505
print "Final Base area = ${AA}"
Final Base area = 7.494149243676
print "Final Stress (xx yy zz xy xz yz) = ${Pxx} ${Pyy} ${Pzz} ${Pxy} ${Pxz} ${Pyz}"
Final Stress (xx yy zz xy xz yz) = -203453.073260962 -203453.058930139 -203453.065198967 0.0154508770089761 0.0109254067337558 -0.00987674401758031
Total wall time: 0:00:01
