LAMMPS (16 Mar 2018)
clear
units 	metal
dimension	3
boundary	p	p    p
atom_style	atomic
box         tilt large
read_data   conf.lmp
  triclinic box = (0 0 0) to (2.41827 2.09428 1.97451) with tilt (1.20914 1.20914 0.698095)
WARNING: Triclinic box skew is large (../domain.cpp:197)
  1 by 1 by 1 MPI processor grid
  reading atoms ...
  1 atoms
mass            1 1
neigh_modify    every 1 delay 0 check no
pair_style deepmd frozen_model.pb
pair_coeff
compute         mype all pe
thermo          100
thermo_style    custom step pe pxx pyy pzz pxy pxz pyz lx ly lz vol c_mype
dump            1 all custom 100 dump.relax id type xs ys zs fx fy fz
min_style       cg
minimize        1.000000e-12 1.000000e-06 5000 500000
WARNING: Using 'neigh_modify every 1 delay 0 check yes' setting during minimization (../min.cpp:168)
Neighbor list info ...
  update every 1 steps, delay 0 steps, check yes
  max neighbors/atom: 2000, page size: 100000
  master list distance cutoff = 10
  ghost atom cutoff = 10
  binsize = 5, bins = 1 1 1
  1 neighbor lists, perpetual/occasional/extra = 1 0 0
  (1) pair deepmd, perpetual
      attributes: , newton on
      pair build: full/bin/atomonly
      stencil: full/bin/3d
      bin: standard
WARNING: Proc sub-domain size < neighbor skin, could lead to lost atoms (../domain.cpp:937)
Per MPI rank memory allocation (min/avg/max) = 5.212 | 5.212 | 5.212 Mbytes
Step PotEng Pxx Pyy Pzz Pxy Pxz Pyz Lx Ly Lz Volume c_mype 
       0   -3.5187335    398547.74    398548.05    398547.81  -0.37488688  -0.26508485  -0.17122903     2.418271     2.094284      1.97451    9.9999972   -3.5187335 
       1   -3.5187335    398547.74    398548.05    398547.81  -0.37488688  -0.26508485  -0.17122903     2.418271     2.094284      1.97451    9.9999972   -3.5187335 
Loop time of 0.0134931 on 1 procs for 1 steps with 1 atoms

205.0% CPU use with 1 MPI tasks x no OpenMP threads

Minimization stats:
  Stopping criterion = quadratic factors are zero
  Energy initial, next-to-last, final = 
        -3.51873348684     -3.51873348684     -3.51873348684
  Force two-norm initial, final = 6.20634e-17 8.32667e-17
  Force max component initial, final = 5.55112e-17 5.55112e-17
  Final line search alpha, max atom move = 1 5.55112e-17
  Iterations, force evaluations = 1 2

MPI task timing breakdown:
Section |  min time  |  avg time  |  max time  |%varavg| %total
---------------------------------------------------------------
Pair    | 0.013327   | 0.013327   | 0.013327   |   0.0 | 98.77
Neigh   | 0          | 0          | 0          |   0.0 |  0.00
Comm    | 4.7922e-05 | 4.7922e-05 | 4.7922e-05 |   0.0 |  0.36
Output  | 0          | 0          | 0          |   0.0 |  0.00
Modify  | 0          | 0          | 0          |   0.0 |  0.00
Other   |            | 0.000118   |            |       |  0.87

Nlocal:    1 ave 1 max 1 min
Histogram: 1 0 0 0 0 0 0 0 0 0
Nghost:    1727 ave 1727 max 1727 min
Histogram: 1 0 0 0 0 0 0 0 0 0
Neighs:    0 ave 0 max 0 min
Histogram: 1 0 0 0 0 0 0 0 0 0

Total # of neighbors = 0
Ave neighs/atom = 0
Neighbor list builds = 0
Dangerous builds not checked
variable        N equal count(all)
variable        V equal vol
variable        E equal "c_mype"
variable        tmplx equal lx
variable        tmply equal ly
variable        Pxx equal pxx
variable        Pyy equal pyy
variable        Pzz equal pzz
variable        Pxy equal pxy
variable        Pxz equal pxz
variable        Pyz equal pyz
variable        Epa equal ${E}/${N}
variable        Epa equal -3.51873348683769/${N}
variable        Epa equal -3.51873348683769/1
variable        Vpa equal ${V}/${N}
variable        Vpa equal 9.99999724168505/${N}
variable        Vpa equal 9.99999724168505/1
variable        AA equal (${tmplx}*${tmply})
variable        AA equal (2.418271*${tmply})
variable        AA equal (2.418271*2.094284)
print "All done"
All done
print "Total number of atoms = ${N}"
Total number of atoms = 1
print "Final energy per atoms = ${Epa}"
Final energy per atoms = -3.51873348683769
print "Final volume per atoms = ${Vpa}"
Final volume per atoms = 9.99999724168505
print "Final Base area = ${AA}"
Final Base area = 5.064546262964
print "Final Stress (xx yy zz xy xz yz) = ${Pxx} ${Pyy} ${Pzz} ${Pxy} ${Pxz} ${Pyz}"
Final Stress (xx yy zz xy xz yz) = 398547.738929525 398548.050461053 398547.810475941 -0.37488687991193 -0.265084854749377 -0.17122903118194
Total wall time: 0:00:01
