-2.197924465754728089e+02
-2.197641367648340349e+02
