2.368130000000000024e+01 1.199699999999999989e+02 2.944889999999999830e+01 2.394610000000000127e+01 1.184620000000000033e+02 2.953579999999999828e+01 2.450270000000000081e+01 1.190210000000000008e+02 3.098969999999999914e+01 2.230460000000000065e+01 1.196119999999999948e+02 3.133139999999999858e+01 2.366100000000000136e+01 1.191269999999999953e+02 3.051030000000000086e+01
