6.330069999999999908e+01 1.321899999999999977e+02 1.166140000000000043e+02 6.398610000000000042e+01 1.305579999999999927e+02 1.173179999999999978e+02 6.510479999999999734e+01 1.326839999999999975e+02 1.177000000000000028e+02 6.538150000000000261e+01 1.320430000000000064e+02 1.160490000000000066e+02 6.606289999999999907e+01 1.325020000000000095e+02 1.164779999999999944e+02 6.629250000000000398e+01 1.340620000000000118e+02 1.162219999999999942e+02 6.575459999999999638e+01 1.336990000000000123e+02 1.171929999999999978e+02 6.803360000000000696e+01 1.332539999999999907e+02 1.167319999999999993e+02 6.324336499999999717e+01 1.311971509999999910e+02 1.170601659999999953e+02 6.677870000000000061e+01 1.333540000000000134e+02 1.167720000000000056e+02
