-3.985586638949188409e-01 -8.089373584861483391e-01 4.282283226536117704e-01 -1.633065978412355568e+00 7.261207304197034862e-01 -2.683767580994903534e-01 -1.260196236766584654e+00 1.871477863663771057e-01 -9.083393516640024812e-01 -1.917833623364059603e+00 -2.695954610986793232e-01 6.729798803379813954e-01 2.681561420033967025e+00 -4.143226643225287886e-01 9.969900703959738708e-02 3.594832919299961183e-01 3.380538960714224217e+00 -4.045278403317056792e+00 -5.307117318029173393e-03 -1.371371106604873935e+00 3.864520374477355968e+00 -3.638126443459967163e+00 1.175177921459073405e+00 7.549386854747861531e-01 1.512368204476058020e+00 -3.046782180564701625e-01 -7.242263414538756272e-02 4.299675146775893353e+00 -2.300080590390678026e+00 -5.259491227573949157e-01
