8.972296800000000516e+00 0.000000000000000000e+00 0.000000000000000000e+00 -2.509913999999999756e-01 9.017628699999999498e+00 0.000000000000000000e+00 -2.272919999999999940e-01 -9.495939999999999936e-02 8.679546399999999551e+00
1.026066499999999948e+01 0.000000000000000000e+00 0.000000000000000000e+00 2.548665999999999987e-01 1.078983689999999918e+01 0.000000000000000000e+00 2.678828999999999794e-01 2.740878999999999954e-01 1.078766539999999985e+01
7.954375399999999985e+00 0.000000000000000000e+00 0.000000000000000000e+00 -2.225159999999999916e-01 7.994564999999999699e+00 0.000000000000000000e+00 -2.015054000000000012e-01 -8.418609999999999982e-02 7.694837599999999611e+00
9.810893099999999478e+00 0.000000000000000000e+00 0.000000000000000000e+00 -6.354899999999999438e-02 1.020883749999999957e+01 0.000000000000000000e+00 2.796522000000000174e-01 2.603945999999999761e-01 9.900056799999999768e+00
7.037638699999999581e+00 0.000000000000000000e+00 0.000000000000000000e+00 -1.968711999999999962e-01 7.073195499999999747e+00 0.000000000000000000e+00 -1.782819999999999960e-01 -7.448369999999999991e-02 6.808011999999999730e+00
6.568482399999999721e+00 0.000000000000000000e+00 0.000000000000000000e+00 -1.837469999999999937e-01 6.601669799999999810e+00 0.000000000000000000e+00 -1.663969999999999894e-01 -6.951839999999999409e-02 6.354164100000000204e+00
1.271504690000000082e+01 0.000000000000000000e+00 0.000000000000000000e+00 -3.249890999999999752e-01 1.275319290000000017e+01 0.000000000000000000e+00 -1.673704000000000025e-01 -3.295625999999999833e-01 1.219357109999999977e+01
1.277790929999999925e+01 0.000000000000000000e+00 0.000000000000000000e+00 3.173928999999999778e-01 1.343690209999999929e+01 0.000000000000000000e+00 3.336025000000000240e-01 3.413297000000000136e-01 1.343419940000000068e+01
1.320457359999999980e+01 0.000000000000000000e+00 0.000000000000000000e+00 -8.553109999999999880e-02 1.374016860000000051e+01 0.000000000000000000e+00 3.763865000000000127e-01 3.504674999999999874e-01 1.332457729999999962e+01
9.463212000000000401e+00 0.000000000000000000e+00 0.000000000000000000e+00 -2.647242000000000206e-01 9.511025500000000577e+00 0.000000000000000000e+00 -2.397282000000000024e-01 -1.001550999999999969e-01 9.154443699999999851e+00
9.845101400000000780e+00 0.000000000000000000e+00 0.000000000000000000e+00 -2.754072000000000187e-01 9.894845000000000113e+00 0.000000000000000000e+00 -2.494024999999999992e-01 -1.041968999999999951e-01 9.523872400000000127e+00
9.980734800000000462e+00 0.000000000000000000e+00 0.000000000000000000e+00 -6.464910000000000101e-02 1.038556769999999929e+01 0.000000000000000000e+00 2.844935000000000103e-01 2.649023999999999823e-01 1.007144169999999939e+01
9.824441900000000061e+00 0.000000000000000000e+00 0.000000000000000000e+00 -6.363670000000000437e-02 1.022293469999999971e+01 0.000000000000000000e+00 2.800384000000000206e-01 2.607541999999999915e-01 9.913726799999999173e+00
1.037732980000000005e+01 0.000000000000000000e+00 0.000000000000000000e+00 2.577644000000000046e-01 1.091251860000000029e+01 0.000000000000000000e+00 2.709287000000000223e-01 2.772043000000000146e-01 1.091032320000000055e+01
9.813723599999999436e+00 0.000000000000000000e+00 0.000000000000000000e+00 -6.356729999999999325e-02 1.021178060000000087e+01 0.000000000000000000e+00 2.797329000000000065e-01 2.604697000000000262e-01 9.902910200000000884e+00
9.726992600000000877e+00 0.000000000000000000e+00 0.000000000000000000e+00 2.416106000000000087e-01 1.022864060000000030e+01 0.000000000000000000e+00 2.539499000000000062e-01 2.598322000000000132e-01 1.022658440000000013e+01
1.095858300000000085e+01 0.000000000000000000e+00 0.000000000000000000e+00 -7.098300000000000443e-02 1.140307899999999997e+01 0.000000000000000000e+00 3.123662999999999856e-01 2.908557999999999977e-01 1.105817599999999956e+01
1.364193060000000024e+01 0.000000000000000000e+00 0.000000000000000000e+00 -8.836410000000000098e-02 1.419526480000000035e+01 0.000000000000000000e+00 3.888531000000000071e-01 3.620754999999999946e-01 1.376590919999999940e+01
9.822807299999999131e+00 0.000000000000000000e+00 0.000000000000000000e+00 -6.362610000000000487e-02 1.022123530000000002e+01 0.000000000000000000e+00 2.799918000000000129e-01 2.607108000000000203e-01 9.912079000000000306e+00
8.435023299999999224e+00 0.000000000000000000e+00 0.000000000000000000e+00 -2.359615999999999936e-01 8.477641099999999597e+00 0.000000000000000000e+00 -2.136813999999999936e-01 -8.927309999999999413e-02 8.159801500000000374e+00
9.873620999999999981e+00 0.000000000000000000e+00 0.000000000000000000e+00 -6.395530000000000659e-02 1.027410989999999913e+01 0.000000000000000000e+00 2.814402999999999766e-01 2.620595000000000008e-01 9.963354199999999494e+00
9.834378299999999129e+00 0.000000000000000000e+00 0.000000000000000000e+00 -6.370109999999999661e-02 1.023327450000000027e+01 0.000000000000000000e+00 2.803217000000000070e-01 2.610179000000000249e-01 9.923753800000000069e+00
7.742962900000000204e+00 0.000000000000000000e+00 0.000000000000000000e+00 -2.166019000000000139e-01 7.782084499999999849e+00 0.000000000000000000e+00 -1.961497000000000102e-01 -8.194859999999999645e-02 7.490323599999999971e+00
1.177872559999999957e+01 0.000000000000000000e+00 0.000000000000000000e+00 -3.294985000000000275e-01 1.183823680000000067e+01 0.000000000000000000e+00 -2.983862999999999932e-01 -1.246615999999999974e-01 1.139440540000000013e+01
1.006647010000000009e+01 0.000000000000000000e+00 0.000000000000000000e+00 -2.815998000000000112e-01 1.011733150000000059e+01 0.000000000000000000e+00 -2.550103000000000231e-01 -1.065398000000000039e-01 9.738018099999999677e+00
1.006131270000000022e+01 0.000000000000000000e+00 0.000000000000000000e+00 -6.517100000000000670e-02 1.046941190000000077e+01 0.000000000000000000e+00 2.867901999999999951e-01 2.670409999999999728e-01 1.015274999999999928e+01
9.111963299999999322e+00 0.000000000000000000e+00 0.000000000000000000e+00 -1.075863999999999987e-01 9.420769699999999247e+00 0.000000000000000000e+00 1.931093999999999866e-01 -2.449773000000000089e-01 9.068067599999999118e+00
1.049030400000000007e+01 0.000000000000000000e+00 0.000000000000000000e+00 -6.794980000000000464e-02 1.091580399999999962e+01 0.000000000000000000e+00 2.990183000000000146e-01 2.784269999999999801e-01 1.058563999999999972e+01
9.921404000000000778e+00 0.000000000000000000e+00 0.000000000000000000e+00 -2.775417000000000023e-01 9.971531999999999840e+00 0.000000000000000000e+00 -2.513353999999999866e-01 -1.050043999999999977e-01 9.597684900000000852e+00
1.012744619999999962e+01 0.000000000000000000e+00 0.000000000000000000e+00 2.515574999999999894e-01 1.064974789999999949e+01 0.000000000000000000e+00 2.644048999999999983e-01 2.705292999999999726e-01 1.064760500000000043e+01
