3.231939999999999813e+00 3.864980000000000082e+00 3.870620000000000172e+00 4.693909999999999805e+00 3.882099999999999884e+00 4.812450000000000117e+00 4.321329999999999671e+00 5.253239999999999910e+00 3.739199999999999857e+00 4.888289999999999580e+00 3.708480000000000221e+00 3.000480000000000036e+00 4.301739999999999675e+00 4.169870000000000410e+00 3.867550000000000043e+00
5.533820000000000405e+00 5.757640000000000313e+00 5.696710000000000385e+00 4.515380000000000393e+00 5.591440000000000410e+00 4.376509999999999678e+00 5.252849999999999575e+00 4.124660000000000437e+00 5.047629999999999839e+00 6.328020000000000422e+00 5.242790000000000283e+00 4.216070000000000206e+00 5.397199999999999775e+00 5.161959999999999660e+00 4.796479999999999855e+00
3.666479999999999961e+00 3.092639999999999834e+00 2.480239999999999778e+00 2.850039999999999907e+00 4.072370000000000267e+00 3.764149999999999885e+00 4.461859999999999715e+00 4.591969999999999885e+00 3.262960000000000083e+00 4.217150000000000176e+00 3.077729999999999855e+00 4.315929999999999822e+00 3.813359999999999861e+00 3.694999999999999840e+00 3.416240000000000165e+00
5.539109999999999978e+00 4.332360000000000433e+00 3.564630000000000187e+00 3.976840000000000153e+00 4.791479999999999961e+00 4.201800000000000423e+00 5.297819999999999752e+00 5.937909999999999577e+00 4.471940000000000026e+00 5.338119999999999976e+00 4.467509999999999870e+00 5.371279999999999610e+00 5.031889999999999752e+00 4.885640000000000427e+00 4.407350000000000101e+00
2.362389999999999990e+00 3.112019999999999786e+00 2.713119999999999976e+00 3.489440000000000097e+00 3.934810000000000141e+00 3.903900000000000148e+00 3.891939999999999955e+00 3.698319999999999830e+00 2.184979999999999922e+00 3.732400000000000162e+00 2.303729999999999833e+00 3.205569999999999808e+00 3.371210000000000040e+00 3.275510000000000144e+00 3.041069999999999940e+00
2.071969999999999867e+00 3.178570000000000118e+00 2.912440000000000140e+00 3.681719999999999882e+00 3.628680000000000128e+00 3.619569999999999954e+00 3.450590000000000046e+00 3.389879999999999782e+00 1.843360000000000110e+00 3.376450000000000173e+00 1.957449999999999912e+00 2.878299999999999859e+00 3.146230000000000082e+00 3.059169999999999945e+00 2.834470000000000045e+00
7.273179999999999978e+00 5.797060000000000102e+00 5.444749999999999979e+00 5.803569999999999673e+00 6.404989999999999739e+00 6.314840000000000231e+00 5.717039999999999900e+00 4.834679999999999644e+00 5.556750000000000078e+00 5.870129999999999626e+00 6.206170000000000186e+00 4.445330000000000226e+00 6.175010000000000332e+00 5.811250000000000249e+00 5.423540000000000028e+00
6.679109999999999658e+00 5.346309999999999896e+00 6.148349999999999760e+00 5.702460000000000306e+00 6.899619999999999642e+00 5.899359999999999715e+00 7.290470000000000006e+00 6.605439999999999756e+00 5.034340000000000259e+00 7.267369999999999663e+00 6.909749999999999837e+00 6.754109999999999836e+00 6.721070000000000100e+00 6.431479999999999642e+00 5.993590000000000195e+00
6.888309999999999711e+00 7.698529999999999873e+00 5.864419999999999966e+00 7.675300000000000011e+00 6.192689999999999806e+00 5.489379999999999704e+00 5.856760000000000410e+00 6.291249999999999787e+00 5.369150000000000311e+00 6.748739999999999739e+00 6.232730000000000103e+00 6.963610000000000078e+00 6.768589999999999662e+00 6.564750000000000085e+00 5.933099999999999596e+00
4.688340000000000174e+00 4.916310000000000180e+00 4.983629999999999782e+00 5.503129999999999633e+00 4.145199999999999996e+00 3.656350000000000211e+00 4.010539999999999772e+00 5.065199999999999925e+00 3.356539999999999857e+00 3.971540000000000070e+00 3.443179999999999907e+00 4.327569999999999695e+00 4.528739999999999988e+00 4.402459999999999596e+00 4.074370000000000047e+00
3.806200000000000028e+00 4.244399999999999729e+00 3.685789999999999900e+00 4.530579999999999607e+00 5.257419999999999760e+00 5.097809999999999953e+00 5.346610000000000085e+00 5.088650000000000340e+00 3.492680000000000007e+00 5.196159999999999890e+00 3.604379999999999917e+00 4.531970000000000276e+00 4.713770000000000238e+00 4.587130000000000152e+00 4.253339999999999677e+00
5.849099999999999966e+00 4.675500000000000433e+00 3.732880000000000198e+00 4.178740000000000343e+00 4.519370000000000331e+00 4.082760000000000389e+00 5.036360000000000170e+00 6.033000000000000362e+00 4.601049999999999862e+00 5.398279999999999745e+00 4.644929999999999559e+00 5.511040000000000383e+00 5.122189999999999799e+00 4.969769999999999577e+00 4.482540000000000191e+00
5.946039999999999992e+00 5.197820000000000107e+00 3.973199999999999843e+00 4.625519999999999854e+00 4.031410000000000160e+00 3.820089999999999986e+00 4.334550000000000125e+00 5.738380000000000258e+00 4.396840000000000082e+00 5.230559999999999654e+00 4.577820000000000000e+00 5.462399999999999700e+00 5.042419999999999902e+00 4.893290000000000362e+00 4.411880000000000024e+00
5.800410000000000288e+00 6.120599999999999596e+00 5.337650000000000006e+00 4.570030000000000037e+00 5.469020000000000437e+00 4.298630000000000173e+00 5.241340000000000110e+00 4.405999999999999694e+00 5.543969999999999843e+00 6.230380000000000251e+00 4.824659999999999727e+00 4.146860000000000213e+00 5.461400000000000254e+00 5.231630000000000003e+00 4.870160000000000267e+00
5.708990000000000009e+00 4.442289999999999850e+00 3.606399999999999828e+00 3.982200000000000184e+00 4.692050000000000054e+00 4.251820000000000377e+00 5.161529999999999951e+00 5.960549999999999571e+00 4.424140000000000406e+00 5.252740000000000187e+00 4.421800000000000175e+00 5.376039999999999708e+00 5.037689999999999557e+00 4.888560000000000016e+00 4.404969999999999608e+00
5.098950000000000315e+00 4.903050000000000352e+00 5.693850000000000300e+00 4.303029999999999688e+00 5.386700000000000266e+00 4.073210000000000441e+00 5.159279999999999866e+00 3.855859999999999843e+00 4.257900000000000240e+00 5.988339999999999996e+00 5.420040000000000191e+00 4.133799999999999919e+00 5.112779999999999880e+00 4.899589999999999890e+00 4.561379999999999768e+00
5.246000000000000441e+00 4.778059999999999974e+00 4.127620000000000289e+00 4.970080000000000275e+00 6.293660000000000032e+00 5.210259999999999891e+00 6.506940000000000168e+00 5.928519999999999790e+00 4.547390000000000043e+00 5.746340000000000003e+00 4.802080000000000126e+00 5.790180000000000327e+00 5.623850000000000016e+00 5.458129999999999704e+00 4.922450000000000436e+00
6.535669999999999646e+00 7.809999999999999609e+00 6.030599999999999739e+00 8.051420000000000243e+00 6.981849999999999667e+00 5.952560000000000073e+00 6.493339999999999890e+00 6.105520000000000280e+00 5.410630000000000273e+00 6.901909999999999989e+00 6.308810000000000251e+00 7.094420000000000393e+00 7.000000000000000000e+00 6.789170000000000371e+00 6.128180000000000405e+00
5.958960000000000257e+00 5.063860000000000028e+00 3.922759999999999803e+00 4.432280000000000442e+00 4.108570000000000277e+00 3.881639999999999979e+00 4.528080000000000105e+00 5.857680000000000220e+00 4.372399999999999842e+00 5.306040000000000312e+00 4.519020000000000259e+00 5.427859999999999907e+00 5.033909999999999663e+00 4.891899999999999693e+00 4.414900000000000269e+00
3.290939999999999976e+00 4.070660000000000167e+00 2.838249999999999940e+00 4.207169999999999632e+00 2.822729999999999961e+00 3.812749999999999861e+00 3.616299999999999848e+00 4.309840000000000337e+00 4.569449999999999790e+00 4.956360000000000099e+00 4.404200000000000337e+00 3.415099999999999802e+00 4.047360000000000291e+00 3.928580000000000183e+00 3.624600000000000044e+00
4.042019999999999946e+00 5.336660000000000181e+00 4.188360000000000305e+00 5.795169999999999710e+00 5.752729999999999677e+00 4.563860000000000028e+00 5.406159999999999854e+00 4.319499999999999673e+00 3.590939999999999799e+00 4.982520000000000060e+00 4.373680000000000234e+00 5.408190000000000275e+00 5.068629999999999747e+00 4.906179999999999986e+00 4.433110000000000106e+00
5.541319999999999801e+00 5.927439999999999820e+00 4.346930000000000405e+00 5.518480000000000274e+00 4.115059999999999718e+00 3.821839999999999904e+00 3.996970000000000134e+00 5.009689999999999976e+00 4.055279999999999774e+00 5.087489999999999846e+00 4.592179999999999929e+00 5.453800000000000203e+00 5.048589999999999911e+00 4.891639999999999766e+00 4.415729999999999933e+00
3.342760000000000176e+00 4.541579999999999728e+00 2.943119999999999958e+00 4.272890000000000299e+00 3.080849999999999866e+00 2.562019999999999964e+00 2.869610000000000216e+00 2.970450000000000035e+00 3.670690000000000008e+00 4.419760000000000133e+00 3.816619999999999902e+00 4.205029999999999824e+00 3.702560000000000073e+00 3.599369999999999958e+00 3.331710000000000171e+00
4.697289999999999743e+00 5.248579999999999579e+00 4.621089999999999698e+00 5.875090000000000146e+00 4.707860000000000156e+00 5.853390000000000093e+00 5.570879999999999832e+00 6.488940000000000374e+00 5.470100000000000406e+00 6.356220000000000425e+00 5.483500000000000263e+00 4.311049999999999827e+00 5.646930000000000227e+00 5.474689999999999834e+00 5.076539999999999608e+00
4.178149999999999586e+00 5.316530000000000200e+00 4.934599999999999653e+00 5.801989999999999981e+00 5.143390000000000128e+00 4.085119999999999862e+00 4.342600000000000016e+00 4.434000000000000163e+00 3.377629999999999910e+00 5.016989999999999839e+00 3.745239999999999903e+00 4.959939999999999571e+00 4.816799999999999748e+00 4.687330000000000219e+00 4.334710000000000285e+00
5.988520000000000287e+00 5.690859999999999808e+00 4.189809999999999590e+00 5.261730000000000018e+00 4.150120000000000253e+00 3.866099999999999870e+00 4.178119999999999834e+00 5.469829999999999970e+00 4.408140000000000391e+00 5.173499999999999766e+00 4.743599999999999817e+00 5.573520000000000252e+00 5.165689999999999671e+00 5.008130000000000415e+00 4.521639999999999660e+00
5.095570000000000377e+00 3.685960000000000125e+00 3.276520000000000099e+00 3.542539999999999800e+00 4.255379999999999718e+00 3.901450000000000085e+00 4.947560000000000180e+00 5.331830000000000069e+00 4.049220000000000041e+00 4.940850000000000186e+00 3.785740000000000105e+00 4.986580000000000013e+00 4.617320000000000313e+00 4.302870000000000417e+00 4.032079999999999664e+00
4.460810000000000386e+00 5.866279999999999717e+00 4.539629999999999832e+00 6.364130000000000287e+00 5.737119999999999997e+00 4.683869999999999756e+00 5.397499999999999964e+00 4.548840000000000217e+00 3.875539999999999985e+00 5.256459999999999688e+00 4.708949999999999747e+00 5.683530000000000193e+00 5.386050000000000004e+00 5.225679999999999659e+00 4.716440000000000410e+00
4.255840000000000067e+00 4.045049999999999812e+00 3.419140000000000068e+00 4.051210000000000200e+00 5.160190000000000055e+00 4.891250000000000320e+00 5.464680000000000426e+00 5.341120000000000090e+00 3.842750000000000110e+00 5.267210000000000392e+00 3.828219999999999956e+00 4.874719999999999942e+00 4.749220000000000219e+00 4.619449999999999612e+00 4.278859999999999886e+00
5.193620000000000125e+00 4.830530000000000435e+00 5.832189999999999763e+00 4.435270000000000046e+00 5.657300000000000217e+00 4.464199999999999946e+00 5.504900000000000126e+00 4.199989999999999668e+00 4.149429999999999730e+00 6.198769999999999669e+00 5.701780000000000292e+00 4.656439999999999912e+00 5.328529999999999767e+00 5.099759999999999849e+00 4.732840000000000380e+00
