-2.395018355999999926e+01
-2.393879554999999826e+01
-2.390805026999999683e+01
-2.396033264000000074e+01
-2.390848892999999720e+01
-2.396278301000000255e+01
-2.396190061000000071e+01
-2.395218097000000057e+01
-2.395209293000000272e+01
-2.395151723000000032e+01
-2.393342210000000136e+01
-2.391635751999999826e+01
-2.397081830999999852e+01
-2.396003722000000025e+01
-2.396288034999999894e+01
-2.392136895000000152e+01
-2.392466694999999888e+01
-2.392520329999999973e+01
-2.393710850000000079e+01
-2.394783218999999974e+01
-2.395706509000000040e+01
-2.394814333999999789e+01
-2.397712149999999909e+01
-2.394202207000000016e+01
-2.395943716000000023e+01
-2.394314401999999831e+01
-2.395905755999999798e+01
-2.393167573999999931e+01
-2.395512812000000125e+01
-2.394995466000000306e+01
