LAMMPS (16 Mar 2018)
clear
units 	metal
dimension	3
boundary	p	p    p
atom_style	atomic
box         tilt large
read_data   conf.lmp
  triclinic box = (0 0 0) to (2.57003 6.29526 22.2571) with tilt (2.57003 -12.8501 0)
WARNING: Triclinic box skew is large (../domain.cpp:197)
  1 by 1 by 1 MPI processor grid
  reading atoms ...
  15 atoms
mass            1 1
neigh_modify    every 1 delay 0 check no
pair_style deepmd frozen_model.pb
pair_coeff
compute         mype all pe
thermo          100
thermo_style    custom step pe pxx pyy pzz pxy pxz pyz lx ly lz vol c_mype
dump            1 all custom 100 dump.relax id type xs ys zs fx fy fz
min_style       cg
minimize        1.000000e-12 1.000000e-06 5000 500000
WARNING: Using 'neigh_modify every 1 delay 0 check yes' setting during minimization (../min.cpp:168)
Neighbor list info ...
  update every 1 steps, delay 0 steps, check yes
  max neighbors/atom: 2000, page size: 100000
  master list distance cutoff = 10
  ghost atom cutoff = 10
  binsize = 5, bins = 4 2 5
  1 neighbor lists, perpetual/occasional/extra = 1 0 0
  (1) pair deepmd, perpetual
      attributes: , newton on
      pair build: full/bin/atomonly
      stencil: full/bin/3d
      bin: standard
Per MPI rank memory allocation (min/avg/max) = 5.163 | 5.163 | 5.163 Mbytes
Step PotEng Pxx Pyy Pzz Pxy Pxz Pyz Lx Ly Lz Volume c_mype 
       0   -52.830249   -19417.632   -15134.142   -9631.3321  0.074392911 -0.010348483   -662.59433    2.5700275     6.295255    22.257086    360.09692   -52.830249 
      22   -52.902202   -14102.465    -8168.259  0.080986766 -0.0013091229 0.0029893414 0.0081059241    2.5700275     6.295255    22.257086    360.09692   -52.902202 
Loop time of 2.72842 on 1 procs for 22 steps with 15 atoms

317.7% CPU use with 1 MPI tasks x no OpenMP threads

Minimization stats:
  Stopping criterion = energy tolerance
  Energy initial, next-to-last, final = 
        -52.8302486621     -52.9022018826     -52.9022018826
  Force two-norm initial, final = 0.785252 3.44151e-06
  Force max component initial, final = 0.430903 9.48791e-07
  Final line search alpha, max atom move = 1 9.48791e-07
  Iterations, force evaluations = 22 44

MPI task timing breakdown:
Section |  min time  |  avg time  |  max time  |%varavg| %total
---------------------------------------------------------------
Pair    | 2.7269     | 2.7269     | 2.7269     |   0.0 | 99.94
Neigh   | 0          | 0          | 0          |   0.0 |  0.00
Comm    | 0.00068283 | 0.00068283 | 0.00068283 |   0.0 |  0.03
Output  | 0          | 0          | 0          |   0.0 |  0.00
Modify  | 0          | 0          | 0          |   0.0 |  0.00
Other   |            | 0.0008731  |            |       |  0.03

Nlocal:    15 ave 15 max 15 min
Histogram: 1 0 0 0 0 0 0 0 0 0
Nghost:    1105 ave 1105 max 1105 min
Histogram: 1 0 0 0 0 0 0 0 0 0
Neighs:    0 ave 0 max 0 min
Histogram: 1 0 0 0 0 0 0 0 0 0

Total # of neighbors = 0
Ave neighs/atom = 0
Neighbor list builds = 0
Dangerous builds not checked
variable        N equal count(all)
variable        V equal vol
variable        E equal "c_mype"
variable        tmplx equal lx
variable        tmply equal ly
variable        Pxx equal pxx
variable        Pyy equal pyy
variable        Pzz equal pzz
variable        Pxy equal pxy
variable        Pxz equal pxz
variable        Pyz equal pyz
variable        Epa equal ${E}/${N}
variable        Epa equal -52.9022018825759/${N}
variable        Epa equal -52.9022018825759/15
variable        Vpa equal ${V}/${N}
variable        Vpa equal 360.096923854729/${N}
variable        Vpa equal 360.096923854729/15
variable        AA equal (${tmplx}*${tmply})
variable        AA equal (2.5700275354*${tmply})
variable        AA equal (2.5700275354*6.295255)
print "All done"
All done
print "Total number of atoms = ${N}"
Total number of atoms = 15
print "Final energy per atoms = ${Epa}"
Final energy per atoms = -3.52681345883839
print "Final volume per atoms = ${Vpa}"
Final volume per atoms = 24.0064615903153
print "Final Base area = ${AA}"
Final Base area = 16.1789786923645
print "Final Stress (xx yy zz xy xz yz) = ${Pxx} ${Pyy} ${Pzz} ${Pxy} ${Pxz} ${Pyz}"
Final Stress (xx yy zz xy xz yz) = -14102.4653297076 -8168.25895873006 0.080986766238845 -0.00130912294441977 0.00298934139570033 0.00810592414266982
Total wall time: 0:00:05
