-2.199852397959479276e+03
-2.189363743086945760e+03
-2.189091243739824677e+03
-2.202252554495112690e+03
-2.190758763948962041e+03
-2.188142713847671075e+03
-2.198928642020860025e+03
-2.200037602461142797e+03
-2.189235352122958375e+03
-2.192366180165175138e+03
-2.198859215102240796e+03
