-9.053896790294255759e-01 6.880027859291225623e-01 -2.997267820369679647e+00 1.198167647964321736e+00 -1.322876291741705179e+00 2.348622559289722300e+00 -4.193729901199946930e+00 -1.114096218607319777e+00 -1.670788898580583215e+00 -3.448038651807698862e+00 2.510172903264991984e+00 -6.503065023918473964e-01 -9.711071841083050993e-01 6.225712903895463946e-01 7.766966477757065723e-01 -9.457074595666437045e-01 -1.000115812189589670e+00 -1.228398784277788813e+00 3.442626170673409813e+00 3.455838042470102400e-01 3.162593675383196246e+00 3.155826994101918803e+00 2.742722929934443776e+00 1.218540196923295182e+00 6.527035369250495656e+00 -5.776422359513886384e-01 2.922145219149380413e+00 -3.859683306278127723e+00 -2.894323103853044366e+00 -3.881836241479333260e+00
-3.544551393280260254e-01 -3.114910660699275802e+00 -1.147185002623408145e+01 -2.781144161779000257e+00 -8.509641000138749023e-01 1.159930301433060862e+00 -4.591128123298127583e+00 2.123531817728386173e+00 9.963408153720177962e-01 2.238215523762990156e+00 9.939263436157342868e-01 -2.023556777030576015e+00 2.858620351027691520e+00 -1.045701937805959991e+00 -2.262078499818121369e+00 1.946156589597615172e+00 -5.938725316868738169e-01 1.072022117355447612e+00 4.209721547120274243e-01 -7.453100061839791346e-01 1.661909181702568850e+00 -1.161576578923315450e+00 -7.685427533801205691e-01 2.687305727769679908e+00 6.181971544949806052e+00 2.412840905413397241e+00 6.969511409828043291e+00 -4.757632212143729333e+00 1.589002923012566404e+00 1.210465749621959963e+00
-2.438594362357228151e-01 -1.929318279336289743e+00 4.845399345490254639e+00 -1.814803700481615767e+00 3.345829630810446265e+00 1.424152876389408684e+00 2.200694795164079287e-02 1.895826675412418671e+00 -2.110835555002279040e+00 7.544882281636935417e-01 -4.631776239196813805e+00 -4.889040122871928240e+00 6.008127110238162816e-01 1.237751944131057824e+00 -9.294075383517954592e-01 -1.062813864888326965e+00 3.296662575259159955e-01 -1.229547347576940064e+00 -2.298883793192234126e+00 1.533940584535456342e+00 7.806033365080854436e-01 -2.176128673758276566e+00 -2.997196497962089978e+00 1.457650496695174436e+00 1.080772096357219381e+00 1.900100929083118617e-01 2.513525776330650885e+00 5.138409536481874262e+00 1.025265882593653588e+00 -1.862501216188564124e+00
-1.587930875749820059e+00 -1.250216858975589096e+00 2.042746207061053809e+00 1.898822730751859478e+00 1.225238435432761452e+00 2.369867072246891748e+00 -3.735838913188819221e-01 -2.644826163515756612e-01 1.948434741453018981e+00 2.211230611147235958e+00 3.286698624088407072e+00 -1.136191972469492217e+00 -1.204464228704730383e-01 -3.394170128049118357e-02 -4.518921410414072914e-01 -4.474331793043326289e-01 -1.339038144705379407e+00 -4.198392237213890432e-01 -1.394986588249241599e+00 -2.536871703497307895e-02 -7.342474739636620784e-01 -1.262048408215014517e+00 -2.916690366231491360e+00 2.498090722868687052e+00 -2.147582432907738870e+00 -2.996373744882468770e+00 -5.221676673281478998e+00 3.223958456716406573e+00 4.314175089940800234e+00 -8.952912077301546923e-01
8.274194265564219775e-01 -2.036815340064536795e+00 1.932940809723794562e+00 -1.759144094690768156e+00 -2.220989542534960448e-01 2.493368634412335971e-01 -2.901610999210261777e-01 -2.726199528414343654e+00 1.117743688697550475e+00 -4.225049951214292498e-01 -4.578634772050281798e-01 -1.038386634486778037e+00 -3.887975213582927081e-01 -2.849350752034071621e-01 7.410845520553144272e-01 -1.800882872640627408e+00 -2.862982227901370580e-01 -1.025543201803553295e+00 1.369313092620336181e-01 9.799108477485218849e-01 -4.317540767101261667e-01 -2.477093550056078675e-01 9.995931582957603423e-01 -4.043824187248826751e-01 3.694555323380260603e+00 4.474147342087289481e+00 -5.803813352196500741e-01 2.502938795390354798e-01 -4.394407502006222876e-01 -5.606581441287679102e-01
-4.424155733684019154e+00 -1.518313675339738426e-02 1.200905770213301249e+00 -8.674573682024340204e-01 2.961177293733487925e-01 -3.087929039095840711e+00 8.999088579674612287e-01 -4.076884771403110896e+00 4.989620041349462021e+00 4.110326290233260460e-01 8.928733215485909369e+00 1.279239833813699878e+00 6.394464188511848057e-01 8.466263400898419444e-01 -6.023971791889641825e-01 1.234070021255617933e+00 1.348783449245222865e+00 -1.473582081640689712e+00 1.693028479965486888e+00 -8.588139357244733985e-01 -2.360111946092160740e-01 -7.801206889827526636e-01 -2.120699078875250443e+00 -4.214383266069408940e+00 2.243022715741014306e+00 -7.399705032478533617e+00 -2.346095781738070762e+00 -1.048775383356952640e+00 3.051025169618375887e+00 4.490632845543658824e+00
3.472221730232869952e+00 -3.610802042354734454e+00 -5.629524939354265678e-01 -5.288297869774186699e-01 -5.477756820963287643e-01 3.099427321915952049e+00 -2.106354533198257162e+00 2.574178310607247333e+00 -1.358092694652867083e+00 2.971769879679138970e+00 2.576483150515671117e+00 2.565601521128735740e+00 3.144334984774039277e-01 -3.331339817792832836e+00 2.374843288560710697e+00 7.802710985301209989e-01 6.122209023817091200e-01 -1.664226157218917201e+00 -2.463866817281885613e+00 -2.073705582694120420e+00 -3.825052600715521112e-01 -1.037214468458655059e+00 5.581644309665033665e-01 -1.815200061777723306e+00 -3.242959219181314356e+00 8.406844687708849018e-02 -2.877087969497003961e+00 1.840528669600064893e+00 3.158507832167729568e+00 6.201925569701590701e-01
-2.282946397553093920e+00 -1.381727819527010626e+00 -1.288642821650353154e+00 9.165011650579798497e-01 -2.741455427393219679e+00 -6.887387899809112035e-01 1.562676778503251596e+00 -1.294804059509164218e-01 4.787029385366865092e-02 -2.066512098252790253e+00 -8.800825142092215669e-01 -2.741374129104539925e+00 -2.389600650595404385e+00 -4.643229630552018206e-01 -1.924074668271593902e+00 -2.212294482301253584e+00 -7.456456894404644986e-02 1.946214182313188656e+00 -9.562368477913660847e-01 -3.456719570972849098e+00 1.428295746677706590e-01 2.016744998596121885e+00 -6.797336032582546039e-01 -7.315168079144668267e-01 1.941304711842954056e+00 5.057823032059809876e+00 4.604863060365189220e+00 3.470362873915667556e+00 4.750263841250911057e+00 6.325701571441154636e-01
3.075644975662623626e+00 -2.796346427541498980e-01 3.969095581909530823e-01 5.467835961485080221e-01 -2.282186996460603634e+00 -2.390028276508537608e-01 -4.029496970808572609e-01 6.618305065301104406e+00 -3.481904402694526723e+00 -3.713819469674781715e-01 -1.244499444981166381e+00 4.304457090518786444e+00 -1.618150802052576998e+00 6.878318589768311897e-01 -1.458202975388140032e+00 -2.363845702411616623e-01 1.123975889009478868e+00 -7.484323541211415076e-01 6.528779142980685180e-01 3.159364061013277603e+00 -1.286082774021044317e+00 -2.852223702943973427e-01 -5.390546022964788353e-01 5.918907766284038363e-01 -9.845353885428703711e-01 -3.007614660254861239e+00 -8.255504400919275176e-02 -3.766816595077907004e-01 -4.236486476131364753e+00 2.002922901124688071e+00
-2.135184109640589356e-01 2.851171710287543348e+00 -5.489671313997551705e-01 1.414471952278045785e+00 -1.899564545497272938e+00 -1.283889725687314132e-01 -2.462676910640483552e+00 -4.456979210685170223e+00 6.040673062341143762e+00 -2.415256971253772478e-01 2.944058167561674377e+00 4.053674701338726649e+00 3.084444679803644895e+00 1.187764706603523734e+00 -1.235076402538197060e+00 -4.814587499768777090e-01 1.125591518947517411e-01 1.966466146523929925e+00 -1.067373408189385309e+00 4.403299405914229414e-01 -9.913942695911326375e-01 2.253299055971685894e-01 -1.775923320996563304e-01 8.019995959863774893e-01 7.129167261993349936e-01 1.770677910159505597e+00 -2.735999237501577142e+00 -9.706100355599439622e-01 -2.772425447394254228e+00 -7.222987544012851480e+00
-2.533696185142374713e+00 -1.067869991095004245e+00 -2.335579197608149915e+00 1.402596642859197829e+00 2.420883779565301985e+00 2.111722945620718050e+00 -5.986648112653301101e-01 1.924624370172915544e+00 -1.483120206670671015e+00 5.049394029603224698e-01 -1.582700531578532965e+00 -5.897787694730161068e-01 -4.147383603160074150e-01 -9.843443555621956831e-01 2.584193478157206236e+00 -1.289716874373731392e-01 8.673514387434326789e-01 -2.652462854756666433e-01 -2.172937008874155751e+00 7.573329483585513611e-01 1.608691198519632382e+00 1.437309726573901436e+00 1.494695365481659488e+00 1.372352753872996933e+00 1.138103125029317431e+00 -1.695280457988545209e+00 2.276267493740999015e+00 1.366059155612501907e+00 -2.134692566097583288e+00 -5.279503410684048603e+00
