1.07422 -0.06034 0.02917 2.16642 -0.06034 0.02917 0.71015 -0.92887 -0.52401 0.71015 0.85299 -0.44641 0.71015 -0.10514 1.05793
