-3.2035947797369445e-05 -3.363003187717434e-05 4.082912126984163e-05 -0.011104492544055116 -8.227530734476904e-07 -5.142206709048064e-07 0.0037191010023190124 0.008785048785871894 0.005618272206171735 0.0036985321754828206 -0.009186038065043462 0.004791302523222625 0.0037189467361177413 0.0004354934861892806 -0.010449992474127477
