3.302340000000000231e+01 6.661579999999999302e+01 3.965800000000000125e+01 3.287780000000000058e+01 6.537319999999999709e+01 4.110289999999999822e+01 3.146760000000000090e+01 6.552179999999999893e+01 3.970779999999999887e+01 3.162519999999999953e+01 6.691280000000000427e+01 4.072870000000000346e+01 3.222870000000000346e+01 6.610599999999999454e+01 4.041140000000000043e+01 2.804799999999999827e+01 6.706860000000000355e+01 3.970210000000000150e+01 2.846549999999999869e+01 6.642199999999999704e+01 4.049159999999999826e+01
1.180070000000000050e+02 7.526130000000000209e+00 3.928589999999999804e+01 1.184740000000000038e+02 6.953979999999999606e+00 3.731719999999999970e+01 1.167639999999999958e+02 7.526049999999999685e+00 3.778549999999999898e+01 1.173110000000000070e+02 5.926980000000000359e+00 3.831309999999999860e+01 1.176179999999999950e+02 7.055419999999999803e+00 3.825990000000000180e+01 1.155949999999999989e+02 1.011439999999999984e+01 3.638250000000000028e+01 1.151610000000000014e+02 1.088170000000000037e+01 3.705449999999999733e+01
1.221929999999999978e+02 4.096249999999999858e+01 1.317920000000000016e+02 1.211860000000000070e+02 4.206210000000000093e+01 1.308779999999999859e+02 1.221539999999999964e+02 4.257169999999999987e+01 1.324060000000000059e+02 1.206520000000000010e+02 4.108140000000000214e+01 1.326539999999999964e+02 1.215130000000000052e+02 4.182000000000000028e+01 1.320140000000000100e+02 1.231889999999999930e+02 3.843650000000000233e+01 1.322580000000000098e+02 1.236170000000000044e+02 3.919709999999999894e+01 1.329490000000000123e+02
6.454600000000000648e+01 2.332570000000000121e+01 3.775789999999999935e+01 6.447990000000000066e+01 2.168740000000000023e+01 3.825010000000000332e+01 6.499620000000000175e+01 2.281409999999999982e+01 3.964170000000000016e+01 6.632129999999999370e+01 2.281510000000000105e+01 3.830380000000000251e+01 6.517289999999999850e+01 2.281360000000000099e+01 3.846929999999999694e+01 6.096009999999999707e+01 2.141540000000000177e+01 3.621000000000000085e+01 6.190220000000000056e+01 2.097769999999999868e+01 3.658529999999999660e+01
