-4.082300613353457720e+03
-4.082201505294196068e+03
-4.081835233422958481e+03
-4.081671608336997451e+03
