-1.702317825033017762e+00 -1.250841020030616813e+00 1.599022050061721378e+00 -2.060297330021736428e+00 1.967349783331442836e+00 -1.126591266783392165e+00 1.865321870855843001e+00 6.601251347999120833e-01 1.467754161623260334e+00 -3.063106630105735806e-01 7.814707753643436172e-01 1.615452274795554644e+00 2.212335722799369631e+00 -2.159918586895309023e+00 -3.555586466116544830e+00 -1.757206716876530128e-01 2.717536452706607042e-01 -3.321491206319429068e-01 1.669888446757005207e-01 -2.699396804183658571e-01 3.320984184734112610e-01
-8.597668380568770363e-01 -1.127764975473539488e+00 -2.574748787023829255e+00 -2.002923775299835452e+00 8.058338824477496720e-01 3.022869890746860300e+00 -1.114282263647449200e-01 6.321242763970282841e-01 3.359001033440034978e-01 5.621325690695165855e-01 1.977916709665423101e+00 6.635967928414412409e-01 2.412555307250634051e+00 -2.284173225238943949e+00 -1.449866841185417865e+00 -1.819676301329469781e-01 3.119414308212987708e-01 2.808581794276815979e-01 1.813985935342539713e-01 -3.158781500410838272e-01 -2.786093895728068981e-01
8.160219309885642994e-03 6.278298138538104256e-01 1.225782789439065767e-01 1.079857760575422682e-01 -1.601485269937972244e-01 2.913962734084277528e+00 -2.718993239878211288e-01 8.803483662980742253e-01 1.075710159456917170e+00 2.233629240986843900e+00 3.327976917424015468e+00 -1.564472642787794854e+00 -2.157092532910945604e+00 -4.550216520725692604e+00 -2.591983252892992695e+00 4.766650305805321675e-01 7.450306300913801527e-01 7.406134230730962997e-01 -3.974484614581049180e-01 -8.708206799477906657e-01 -6.964086484553426715e-01
2.029337954388669707e-01 1.509121517979737703e+00 4.260228301795521699e-01 3.010656944032962912e+00 2.465532275203308643e+00 4.611255903215913943e-01 1.593029939382840238e-02 1.060167376763590408e+00 -2.556168194272271155e+00 -2.213803822825819001e+00 -3.911544518210701149e-01 -2.443200236941082959e-01 -1.014989182408509993e+00 -4.643084568899667808e+00 1.912379438933048181e+00 -1.279388237900436487e-01 5.889143130966716794e-02 -5.188712865458184470e-02 1.272107901587138379e-01 -5.947352911349917254e-02 5.284738434263475809e-02
