LAMMPS (16 Mar 2018)
clear
units 	metal
dimension	3
boundary	p	p    p
atom_style	atomic
box         tilt large
read_data   conf.lmp
  triclinic box = (0 0 0) to (2.5336 2.19416 2.06867) with tilt (1.2668 1.2668 0.731387)
WARNING: Triclinic box skew is large (../domain.cpp:197)
  1 by 1 by 1 MPI processor grid
  reading atoms ...
  1 atoms
mass            1 1
neigh_modify    every 1 delay 0 check no
pair_style deepmd frozen_model.pb
pair_coeff
compute         mype all pe
thermo          100
thermo_style    custom step pe pxx pyy pzz pxy pxz pyz lx ly lz vol c_mype
dump            1 all custom 100 dump.relax id type xs ys zs fx fy fz
min_style       cg
minimize        1.000000e-12 1.000000e-06 5000 500000
WARNING: Using 'neigh_modify every 1 delay 0 check yes' setting during minimization (../min.cpp:168)
Neighbor list info ...
  update every 1 steps, delay 0 steps, check yes
  max neighbors/atom: 2000, page size: 100000
  master list distance cutoff = 10
  ghost atom cutoff = 10
  binsize = 5, bins = 2 1 1
  1 neighbor lists, perpetual/occasional/extra = 1 0 0
  (1) pair deepmd, perpetual
      attributes: , newton on
      pair build: full/bin/atomonly
      stencil: full/bin/3d
      bin: standard
Per MPI rank memory allocation (min/avg/max) = 5.171 | 5.171 | 5.171 Mbytes
Step PotEng Pxx Pyy Pzz Pxy Pxz Pyz Lx Ly Lz Volume c_mype 
       0   -3.7172341    65698.979    65698.668    65698.467  -0.20373446   -0.1440619 0.0015726813     2.533597      2.19416     2.068674    11.500001   -3.7172341 
       1   -3.7172341    65698.979    65698.668    65698.467  -0.20373446   -0.1440619 0.0015726814     2.533597      2.19416     2.068674    11.500001   -3.7172341 
Loop time of 0.014291 on 1 procs for 1 steps with 1 atoms

208.8% CPU use with 1 MPI tasks x no OpenMP threads

Minimization stats:
  Stopping criterion = quadratic factors are zero
  Energy initial, next-to-last, final = 
        -3.71723410682     -3.71723410682     -3.71723410682
  Force two-norm initial, final = 1.69967e-17 1.55158e-17
  Force max component initial, final = 1.38778e-17 1.38778e-17
  Final line search alpha, max atom move = 1 1.38778e-17
  Iterations, force evaluations = 1 2

MPI task timing breakdown:
Section |  min time  |  avg time  |  max time  |%varavg| %total
---------------------------------------------------------------
Pair    | 0.014084   | 0.014084   | 0.014084   |   0.0 | 98.55
Neigh   | 0          | 0          | 0          |   0.0 |  0.00
Comm    | 3.4094e-05 | 3.4094e-05 | 3.4094e-05 |   0.0 |  0.24
Output  | 0          | 0          | 0          |   0.0 |  0.00
Modify  | 0          | 0          | 0          |   0.0 |  0.00
Other   |            | 0.0001729  |            |       |  1.21

Nlocal:    1 ave 1 max 1 min
Histogram: 1 0 0 0 0 0 0 0 0 0
Nghost:    999 ave 999 max 999 min
Histogram: 1 0 0 0 0 0 0 0 0 0
Neighs:    0 ave 0 max 0 min
Histogram: 1 0 0 0 0 0 0 0 0 0

Total # of neighbors = 0
Ave neighs/atom = 0
Neighbor list builds = 0
Dangerous builds not checked
variable        N equal count(all)
variable        V equal vol
variable        E equal "c_mype"
variable        tmplx equal lx
variable        tmply equal ly
variable        Pxx equal pxx
variable        Pyy equal pyy
variable        Pzz equal pzz
variable        Pxy equal pxy
variable        Pxz equal pxz
variable        Pyz equal pyz
variable        Epa equal ${E}/${N}
variable        Epa equal -3.71723410681803/${N}
variable        Epa equal -3.71723410681803/1
variable        Vpa equal ${V}/${N}
variable        Vpa equal 11.5000012011878/${N}
variable        Vpa equal 11.5000012011878/1
variable        AA equal (${tmplx}*${tmply})
variable        AA equal (2.533597*${tmply})
variable        AA equal (2.533597*2.19416)
print "All done"
All done
print "Total number of atoms = ${N}"
Total number of atoms = 1
print "Final energy per atoms = ${Epa}"
Final energy per atoms = -3.71723410681803
print "Final volume per atoms = ${Vpa}"
Final volume per atoms = 11.5000012011878
print "Final Base area = ${AA}"
Final Base area = 5.55911719352
print "Final Stress (xx yy zz xy xz yz) = ${Pxx} ${Pyy} ${Pzz} ${Pxy} ${Pxz} ${Pyz}"
Final Stress (xx yy zz xy xz yz) = 65698.9790973199 65698.6675306695 65698.4665986231 -0.203734455338371 -0.144061897285869 0.00157268136859693
Total wall time: 0:00:01
