7.918909999999999627e+01 1.180109999999999957e+02 3.288080000000000069e+01 7.798640000000000327e+01 1.183299999999999983e+02 3.313020000000000209e+01 8.029720000000000368e+01 1.197900000000000063e+02 3.230440000000000111e+01 7.938790000000000191e+01 1.197339999999999947e+02 3.182450000000000045e+01 8.185840000000000316e+01 1.237360000000000042e+02 3.303869999999999862e+01 8.263379999999999370e+01 1.237270000000000039e+02 3.374860000000000326e+01
1.287049999999999983e+01 2.905489999999999995e+01 1.312309999999999945e+02 1.247400000000000020e+01 3.018959999999999866e+01 1.306250000000000000e+02 1.032080000000000020e+01 2.874080000000000013e+01 1.317839999999999918e+02 9.505029999999999646e+00 2.884159999999999968e+01 1.336620000000000061e+02 9.455280000000000129e+00 3.034219999999999828e+01 1.346829999999999927e+02 1.001950000000000074e+01 3.006879999999999953e+01 1.327640000000000100e+02
1.117469999999999999e+02 3.336760000000000304e+01 5.535070000000000334e+01 1.111479999999999961e+02 3.324790000000000134e+01 5.444200000000000017e+01 1.129429999999999978e+02 3.628209999999999980e+01 5.366929999999999978e+01 1.123979999999999961e+02 3.704849999999999710e+01 5.302369999999999806e+01 1.125759999999999934e+02 3.675589999999999691e+01 5.499830000000000041e+01 1.140780000000000030e+02 3.609190000000000254e+01 5.460159999999999769e+01
