-8.936999742884285297e+03
-8.921363915609608739e+03
-8.929453850509060430e+03
