-1.487560502197251822e+01 1.147877328771082506e-01 4.479492923111791036e+00 1.274617941255826281e+01 -4.505982384107410255e+00 -1.977297587973008142e+00 1.444846437889016322e+01 2.481568812588543338e+00 6.579666729487662735e+00 -1.231852028076954753e+01 1.912936597034154085e+00 -9.081833473956928415e+00 -7.554433056495516219e+00 8.227304539115257165e-02 -6.914807380317109065e+00 7.553914567789152379e+00 -8.558385520561581639e-02 6.914778738225523469e+00
-4.625856376522736291e+00 1.363753559799686066e+01 -7.323857997171627332e+00 4.886568983997285009e+00 -1.360359389671637054e+01 7.171073778727317105e+00 -1.222728215786837103e+00 5.478232372243309278e+00 5.114707460075876178e+00 6.397584479566311710e-01 7.836007031102468545e+00 1.221263201084436423e+00 6.163286513979203685e-01 -5.632735836091621984e+00 -3.474932598786086846e+00 -2.940714910422633221e-01 -7.715445268534645962e+00 -2.708253843929915750e+00
9.384543255270404449e-01 1.806830554653209020e-01 1.438792841844053871e+00 -9.384454295093671572e-01 -1.849032131210354979e-01 -1.432026674783451137e+00 2.683550631292221489e+00 -2.072612709494046523e+00 4.688005190118759380e+00 -2.115557746302764830e+00 2.915137265527504074e+00 -5.099573997039660078e+00 3.483097548926179954e+00 -2.221186849007867448e+00 6.774733977044001820e-01 -4.051099329933309789e+00 1.382882450630124049e+00 -2.726708092661684901e-01
