ITEM: TIMESTEP
0
ITEM: NUMBER OF ATOMS
1
ITEM: BOX BOUNDS xy xz yz pp pp pp
0.0000000000000000e+00 5.1212378333000004e+00 1.2803094583000001e+00
0.0000000000000000e+00 2.9567480416000000e+00 1.2803094583000001e+00
0.0000000000000000e+00 2.0907365905000002e+00 7.3918701040000001e-01
ITEM: ATOMS id type xs ys zs fx fy fz 
1 1 0 0 0 0 5.20417e-18 0 
ITEM: TIMESTEP
38
ITEM: NUMBER OF ATOMS
1
ITEM: BOX BOUNDS xy xz yz pp pp pp
-4.7404956578248267e-03 5.1354593202731085e+00 1.2850499539576434e+00
-4.1053896660706189e-03 2.9635903577101264e+00 1.2850499539576434e+00
-3.8705984964344819e-03 2.0946071889964406e+00 7.4192393684404934e-01
ITEM: ATOMS id type xs ys zs fx fy fz 
1 1 0 0 0 -3.46945e-18 4.33681e-18 -1.73472e-18 
ITEM: TIMESTEP
39
ITEM: NUMBER OF ATOMS
1
ITEM: BOX BOUNDS xy xz yz pp pp pp
-4.7404938836242763e-03 5.1354593149707890e+00 1.2850499521954886e+00
-4.1053881399997468e-03 2.9635903551644756e+00 1.2850499521916789e+00
-3.8705970545306508e-03 2.0946071875545367e+00 7.4192393582446925e-01
ITEM: ATOMS id type xs ys zs fx fy fz 
1 1 0 0 0 -1.12757e-17 -8.67362e-19 5.20417e-18 
