1.264060000000000059e+02 1.201400000000000006e+02 1.178130000000000024e+02 1.269330000000000069e+02 1.189030000000000058e+02 1.163910000000000053e+02 1.265510000000000019e+02 1.183509999999999991e+02 1.178949999999999960e+02 1.279659999999999940e+02 1.193190000000000026e+02 1.177500000000000000e+02 1.269569999999999936e+02 1.192099999999999937e+02 1.174569999999999936e+02 1.265090000000000003e+02 1.163520000000000039e+02 1.157840000000000060e+02 1.255960000000000036e+02 1.158349999999999937e+02 1.155639999999999930e+02
6.016760000000000019e+01 8.169870000000000232e+01 4.563389999999999702e+01 6.129800000000000182e+01 8.060680000000000689e+01 4.643379999999999797e+01 6.015520000000000067e+01 7.985660000000000025e+01 4.533059999999999690e+01 5.957670000000000243e+01 8.065749999999999886e+01 4.693860000000000099e+01 6.026809999999999690e+01 8.070780000000000598e+01 4.611220000000000141e+01 5.811930000000000263e+01 8.474439999999999884e+01 4.467589999999999861e+01 5.910090000000000288e+01 8.481380000000000052e+01 4.518460000000000321e+01
7.681130000000000280e+01 1.393350000000000080e+02 1.282189999999999941e+02 7.748560000000000514e+01 1.387779999999999916e+02 1.267169999999999987e+02 7.627509999999999479e+01 1.401401840000000050e+02 1.266080000000000041e+02 7.562439999999999429e+01 1.384770000000000039e+02 1.271050000000000040e+02 7.653249999999999886e+01 1.391839999999999975e+02 1.271569999999999965e+02 8.106740000000000634e+01 1.378360000000000127e+02 1.273229999999999933e+02 8.047969999999999402e+01 1.376349999999999909e+02 1.282359999999999900e+02
1.333200000000000074e+01 3.664659999999999940e+01 7.808689999999999998e+01 1.390150000000000041e+01 3.727530000000000143e+01 7.641450000000000387e+01 1.246799999999999997e+01 3.628359999999999985e+01 7.654840000000000089e+01 1.394089999999999918e+01 3.545759999999999934e+01 7.698919999999999675e+01 1.345320000000000071e+01 3.643460000000000321e+01 7.702719999999999345e+01 1.588439999999999941e+01 4.030960000000000321e+01 7.812709999999999866e+01 1.485159999999999947e+01 4.071979999999999933e+01 7.831669999999999732e+01
2.085109999999999886e+01 4.685540000000000305e+01 3.600130000000000052e+01 1.946640000000000015e+01 4.769590000000000174e+01 3.691190000000000282e+01 1.942389999999999972e+01 4.593359999999999843e+01 3.638609999999999900e+01 1.931459999999999866e+01 4.723769999999999669e+01 3.520759999999999934e+01 1.972329999999999828e+01 4.693780000000000285e+01 3.620459999999999923e+01 2.369960000000000022e+01 4.645889999999999986e+01 3.549929999999999808e+01 2.419359999999999999e+01 4.633180000000000121e+01 3.640570000000000306e+01
2.408599999999999852e+00 5.457999999999999829e+01 7.587279999999999802e+01 2.625820000000000043e+00 5.464869999999999806e+01 7.764069999999999538e+01 3.392399999999999860e+00 5.322030000000000172e+01 7.669790000000000418e+01 1.636519999999999975e+00 5.338219999999999743e+01 7.693040000000000589e+01 2.493240000000000123e+00 5.397249999999999659e+01 7.678990000000000293e+01 7.744069999999999565e-01 5.680760000000000076e+01 7.909459999999999980e+01 7.194399999999999407e-02 5.695810000000000173e+01 7.982450000000000045e+01
