-4.082670393371033242e+03
-4.082899569217045610e+03
-4.082851237522885640e+03
-4.082848914976646029e+03
-4.082466855167954236e+03
-4.082248521726002764e+03
