3.932664075543903515e-01 -1.169496400067749242e+00 -1.054673700184757035e+00 -1.589091009014153288e-01 1.182173328096485454e+00 2.463705814788617332e-01 -6.921487929635362635e-01 -1.258576030264540790e+00 1.383303288830350253e+00 1.320863117800006981e+00 2.232771880855811270e-02 3.789462359373806377e-01 -8.519339202064784011e-01 1.303566328385062700e+00 -9.129200294347936673e-01 4.985123335814860113e+00 2.748527607177373877e+00 1.160220013361222602e+00 -4.996261047097827479e+00 -2.828522500713122945e+00 -1.201246338566197114e+00
-4.278660541882411267e-02 -4.630689845177241581e-01 -2.342388302095095229e-02 2.371129124048963199e-01 1.135411076952796694e-01 4.720305139050933740e-01 -3.566213967646011951e-01 1.469931526226410323e+00 1.297640037952551006e+00 -2.421175136999622890e-01 -3.675796450320761855e-01 2.441190662544107937e-01 4.020725908759136269e-01 -7.462984925870764785e-01 -1.990079879818003494e+00 3.067337123597013160e-01 2.211781392911974647e-02 1.592575882527023923e-01 -3.043937511791910966e-01 -2.864332571393299331e-02 -1.595434435258032968e-01
-5.391276216322952175e-01 3.498332210591189040e-01 -4.246340744032190417e-01 -1.185215046231845148e+00 -2.355634626676996607e-02 -2.133455299732035446e-02 2.957581348554868539e-01 -9.200463052339327152e-01 8.777643559853213207e-01 1.620805929084649710e+00 8.529031233342720952e-01 -8.079568939255772630e-02 -1.873664844193539403e-01 -2.606887990573072966e-01 -3.488283824385640108e-01 1.047649034390951139e-01 3.699473227069561415e-02 -1.680399631569841068e-01 -1.096198150957374967e-01 -3.543962610607656605e-02 1.658683064033239229e-01
-8.186048614379000388e-02 5.342358403532723177e-01 3.730208196800160851e-03 1.232997305505994234e-01 -1.109545262791530096e+00 1.027593142523496983e+00 9.406263422351729409e-02 2.298905801837113766e-02 4.766110888317495187e-01 5.283161833674652197e-01 2.895993138338472939e-01 -4.438543062521153604e-01 -6.632233143653607499e-01 2.643849144233706427e-01 -1.062945094004526636e+00 -2.875737523160940778e+00 1.141430184217103072e+00 5.270771686516231291e-01 2.875142878372644706e+00 -1.143094048054434486e+00 -5.282122079470280562e-01
-1.389028004758354751e+00 4.786639606095393629e-01 6.486306057907265110e-01 -8.057740271612072458e-02 1.719720543906963217e-01 8.005292333889594270e-01 -7.124935740060722722e-01 -7.133215207145087167e-01 6.810237829312355551e-01 5.252321962926399801e-02 -1.827553133625493542e-01 6.953035368032088881e-01 2.123665720792094813e+00 2.461190247247675433e-01 -2.827123563367429426e+00 -6.117592144910795504e+00 1.573723986947460629e+00 -1.122419882958678805e+01 6.123502185969984524e+00 -1.574402244017473418e+00 1.122583523404008865e+01
6.087262072539504493e-02 -3.467625522997700993e-01 2.511303108886054347e-01 1.273519437339363514e-01 -1.892814422121723017e-01 -3.873794035814306230e-02 -1.507788298036279118e+00 1.632179976189738424e+00 1.809799664829292165e-01 -1.434118113111848558e+00 -7.467882363577210691e-01 1.616521082468049819e-01 2.749989690821928345e+00 -3.473821882128598215e-01 -5.563880556455337301e-01 1.165372247412012996e+01 -2.498900209054899069e+00 -1.209977913610018874e+01 -1.165003031825326119e+01 2.496934600525616776e+00 1.210114279790759362e+01
