1.107270000000000039e+02 3.329149999999999920e+01 5.522209999999999752e+01 1.098520000000000039e+02 3.360779999999999745e+01 5.458599999999999852e+01 1.112109999999999985e+02 3.693789999999999907e+01 5.333489999999999753e+01 1.120799999999999983e+02 3.563150000000000261e+01 5.320530000000000115e+01 1.125780000000000030e+02 3.709029999999999916e+01 5.423810000000000286e+01 1.134180000000000064e+02 3.638069999999999737e+01 5.490650000000000119e+01
5.678050000000000352e+01 1.846730000000000160e+01 7.418290000000000362e+01 5.781159999999999854e+01 1.908869999999999933e+01 7.349030000000000484e+01 5.844519999999999982e+01 1.815859999999999985e+01 7.123420000000000130e+01 5.836359999999999815e+01 1.749729999999999919e+01 7.232179999999999609e+01 5.603000000000000114e+01 1.613240000000000052e+01 6.695499999999999829e+01 5.628269999999999840e+01 1.693179999999999907e+01 6.768200000000000216e+01
8.615090000000000359e+00 3.001899999999999835e+01 1.339660000000000082e+02 5.904499999999999638e+00 3.123160000000000025e+01 1.350670000000000073e+02 7.712830000000000297e+00 2.916310000000000002e+01 1.350709999999999980e+02 8.004039999999999822e+00 2.935800000000000054e+01 1.328460000000000036e+02 7.031450000000000422e+00 2.983180000000000121e+01 1.365130000000000052e+02 7.434120000000000061e+00 3.044879999999999853e+01 1.352760000000000105e+02
