-8.929447039988886900e+03
-8.935189588109673423e+03
-8.920119733750105297e+03
