-2.431923120433186813e+00 8.553916428677214023e-01 -1.744968264817164716e+00 2.405499325417734813e+00 -8.910808202672606537e-01 1.770304843059964828e+00 5.538704929283738032e+00 -8.512398868461639623e+00 1.074537633474322018e-01 -6.601821155928826457e+00 6.785399530903402088e+00 -1.537577358835652053e+00 6.965633363187248683e+00 -3.849675132129345201e+00 4.608278308398696232e+00 -5.876093392948775751e+00 5.612363647087120988e+00 -3.203491291153277132e+00
1.169729491157412760e+01 7.549700477937400400e+00 -7.681149217787175409e+00 -1.266509298279619422e+01 -5.960700743093016563e+00 9.654097732981306024e+00 -7.204181259807139748e-01 -7.645758288378998735e+00 1.132305245783707548e+01 1.687492431603053067e+00 6.056801439538890719e+00 -1.329808721773078695e+01 1.467850115201171091e-01 4.643342759100466122e-01 4.200491800228948747e-01 -1.460612973424552929e-01 -4.643771104922544413e-01 -4.179629867453802938e-01
-8.138383957373170885e-01 -5.849349598407418860e+00 -1.452142051698561964e+01 3.814888000637476129e+00 -1.734084681391665272e+00 8.136750278289447413e-01 -1.471306603732794871e+00 3.106462632077725550e-01 1.317224697993651938e+00 5.710154175514403185e+00 6.238946115850159124e+00 9.382257287260744150e+00 1.262838405437653355e+00 2.897868449717266870e+00 -2.325607944503815805e+00 -8.502735530697352218e+00 -1.864026548976114306e+00 5.333871448406092952e+00
