-2.390832232999999718e+01
-2.393123367999999829e+01
-2.391341316000000106e+01
-2.398427084000000065e+01
-2.396361471000000165e+01
-2.397761098000000146e+01
-2.388560263000000106e+01
-2.395883854000000213e+01
-2.394381366999999727e+01
-2.397616289000000123e+01
-2.391909834999999873e+01
-2.397027177000000009e+01
-2.394463935000000276e+01
-2.393551008000000024e+01
-2.394815682000000123e+01
-2.389021012000000255e+01
-2.395821503000000163e+01
-2.398332572000000340e+01
-2.395569093999999666e+01
-2.395275423000000359e+01
-2.396650555000000082e+01
-2.395101960999999946e+01
-2.393760427000000135e+01
-2.398090859999999935e+01
-2.395239554000000126e+01
-2.394885405000000134e+01
-2.395582828999999947e+01
-2.393824354999999926e+01
-2.388234547000000063e+01
-2.394373700999999954e+01
