1.536659999999999970e-01 -1.678070000000000117e-01 -1.426914999999999933e+00 1.045865999999999962e+00 -6.297500000000000320e-02 -2.062100000000000044e-02 -2.807609999999999828e-01 -5.952239999999999753e-01 -3.749419999999999975e-01 -4.282770000000000188e-01 -7.332199999999999829e-02 -1.769499999999999892e-02 -4.904950000000000143e-01 8.993280000000000163e-01 1.840173000000000059e+00
1.561450000000000005e+00 -8.871999999999999886e-01 3.375980000000000092e-01 -2.180340000000000056e-01 -3.927100000000000035e-01 -2.441700000000000120e-02 -3.622139999999999804e-01 -4.878879999999999884e-01 7.230220000000000535e-01 3.398729999999999807e-01 8.720700000000000673e-02 7.070340000000000513e-01 -1.321074000000000082e+00 1.680590999999999946e+00 -1.743236999999999925e+00
-1.376429999999999876e-01 -4.870749999999999802e-01 -3.457379999999999898e-01 1.556879999999999931e-01 -1.266034000000000104e+00 3.588939999999999908e-01 -3.447830000000000061e-01 7.704590000000000050e-01 -5.765300000000000286e-02 -3.741099999999999981e-02 -1.581009999999999915e-01 -6.866719999999999491e-01 3.641490000000000005e-01 1.140749999999999931e+00 7.311689999999999579e-01
-7.454199999999999715e-02 -9.647540000000000004e-01 -2.148960000000000037e-01 -6.080140000000000544e-01 -1.511899999999999911e-01 3.609829999999999983e-01 2.502699999999999925e-01 1.380579999999999863e-01 2.967489999999999850e-01 -2.964390000000000081e-01 2.135509999999999908e-01 -3.975449999999999817e-01 7.287240000000000384e-01 7.643349999999999866e-01 -4.528999999999999693e-02
1.465899999999999981e-01 -4.307869999999999755e-01 -3.951250000000000040e-01 1.052540000000000003e-01 -5.512610000000000010e-01 1.142187000000000063e+00 -2.244740000000000069e-01 4.218700000000000228e-01 3.627830000000000221e-01 9.381999999999999715e-03 5.186290000000000067e-01 3.116650000000000253e-01 -3.675300000000000095e-02 4.154900000000000260e-02 -1.421510999999999969e+00
-4.651150000000000007e-01 3.303099999999999925e-01 -1.085109999999999963e-01 -1.176899999999999995e-02 3.651460000000000261e-01 -2.039769999999999917e-01 1.893360000000000043e-01 -4.434449999999999781e-01 -3.981640000000000179e-01 1.071119999999999989e-01 2.625000000000000163e-03 1.163519999999999971e-01 1.804350000000000120e-01 -2.546359999999999735e-01 5.942990000000000217e-01
1.272349999999999870e-01 -1.734340000000000048e-01 1.006240999999999941e+00 2.967300000000000146e-02 1.441739999999999966e-01 1.062229999999999980e-01 1.194007000000000041e+00 9.706930000000000280e-01 -4.860289999999999888e-01 -8.603269999999999529e-01 2.240300000000000069e-01 -6.560740000000000460e-01 -4.905880000000000241e-01 -1.165461999999999998e+00 2.963800000000000115e-02
-8.890800000000000092e-02 -2.208170000000000133e-01 1.770750000000000102e-01 1.379170000000000118e-01 -2.147040000000000060e-01 2.417300000000000004e-01 -2.868229999999999946e-01 2.294279999999999931e-01 5.712479999999999780e-01 8.815939999999999888e-01 -9.669699999999999962e-01 -1.175558000000000103e+00 -6.437800000000000189e-01 1.173064000000000107e+00 1.855060000000000042e-01
-1.486709999999999976e-01 -4.640989999999999838e-01 -5.889980000000000215e-01 1.282723999999999975e+00 3.749299999999999855e-02 -7.624530000000000474e-01 -6.209580000000000100e-01 3.140910000000000091e-01 1.856500000000000164e-02 -1.007600000000000023e-01 4.064550000000000107e-01 3.293900000000000161e-01 -4.123350000000000071e-01 -2.939399999999999791e-01 1.003497000000000083e+00
-1.129190000000000055e-01 -3.377760000000000207e-01 -1.069650000000000045e-01 5.694409999999999750e-01 1.377359999999999973e-01 -6.062130000000000019e-01 1.900620000000000087e-01 2.381699999999999928e-01 2.057660000000000045e-01 5.436280000000000001e-01 -6.585860000000000047e-01 -8.606199999999999961e-02 -1.190212000000000048e+00 6.204560000000000075e-01 5.934730000000000283e-01
2.328600000000000114e-02 -4.249890000000000057e-01 -2.304599999999999982e-01 -3.364219999999999988e-01 2.994229999999999947e-01 1.126379999999999937e+00 3.839719999999999800e-01 4.577260000000000217e-01 3.950199999999999823e-01 -3.324829999999999730e-01 1.157507999999999981e+00 -2.843080000000000052e-01 2.616479999999999917e-01 -1.489667999999999992e+00 -1.006632999999999889e+00
-4.477010000000000156e-01 -9.096400000000000319e-02 3.886479999999999935e-01 -1.351360000000000061e-01 3.698509999999999853e-01 3.433849999999999958e-01 -9.006999999999999729e-02 4.268440000000000012e-01 -6.961249999999999938e-01 7.243619999999999504e-01 -2.918069999999999831e-01 7.798299999999999677e-02 -5.145399999999999974e-02 -4.139229999999999854e-01 -1.138910000000000061e-01
-8.991400000000000503e-01 2.429920000000000135e-01 1.688689999999999913e-01 -3.563970000000000193e-01 -3.630300000000000193e-01 3.496670000000000056e-01 2.988580000000000125e-01 7.889460000000000361e-01 -4.193810000000000038e-01 -7.558700000000000141e-02 7.192140000000000200e-01 6.257840000000000069e-01 1.032265999999999906e+00 -1.388122000000000078e+00 -7.249390000000000001e-01
-5.679800000000000126e-02 1.748069999999999902e-01 1.496950999999999921e+00 -5.959699999999999998e-01 2.058730000000000004e-01 -3.530699999999999950e-01 1.420450000000000046e-01 -6.667049999999999921e-01 3.555340000000000167e-01 4.308420000000000027e-01 -3.289119999999999822e-01 -4.383200000000000290e-02 7.988099999999999368e-02 6.149360000000000381e-01 -1.455581999999999931e+00
4.604440000000000199e-01 2.278640000000000110e-01 1.715180000000000038e-01 -7.462860000000000049e-01 1.708280000000000076e-01 6.500499999999999334e-02 1.183280000000000026e-01 5.899959999999999649e-01 -2.245250000000000024e-01 -6.388900000000000134e-02 4.945430000000000104e-01 -9.546850000000000058e-01 2.314029999999999976e-01 -1.483230999999999966e+00 9.426870000000000527e-01
-4.093899999999999761e-01 1.437990000000000101e-01 3.946299999999999808e-01 4.606990000000000252e-01 -4.874229999999999952e-01 2.171260000000000134e-01 -7.293169999999999931e-01 6.246960000000000290e-01 1.221921999999999953e+00 -3.532509999999999817e-01 -8.597839999999999927e-01 7.333030000000000381e-01 1.031260000000000066e+00 5.787120000000000042e-01 -2.566981000000000179e+00
2.180400000000000116e-01 4.189329999999999998e-01 -4.283410000000000273e-01 3.662659999999999805e-01 3.057999999999999954e-03 -3.210439999999999960e-01 -7.278769999999999962e-01 -5.357650000000000468e-01 3.362840000000000273e-01 -2.227119999999999933e-01 9.565300000000000191e-02 5.506459999999999688e-01 3.662839999999999985e-01 1.812199999999999922e-02 -1.375450000000000006e-01
2.172109999999999874e-01 8.505600000000000660e-02 -1.886200000000000099e-01 -2.513099999999999778e-01 -3.052349999999999786e-01 -2.983250000000000068e-01 -2.052249999999999908e-01 -2.408279999999999865e-01 4.017160000000000175e-01 -1.031622000000000039e+00 3.260440000000000005e-01 -4.181320000000000037e-01 1.270944999999999991e+00 1.349629999999999996e-01 5.033600000000000296e-01
-2.348210000000000020e-01 5.321499999999999841e-02 8.332920000000000327e-01 4.265900000000000247e-02 5.886240000000000361e-01 3.967330000000000023e-01 1.044302000000000064e+00 4.913500000000000090e-01 -7.090629999999999988e-01 -2.936670000000000114e-01 5.093649999999999567e-01 -4.111879999999999979e-01 -5.584729999999999972e-01 -1.642554000000000070e+00 -1.097739999999999966e-01
-1.525000000000000097e-03 5.595980000000000398e-01 6.991730000000000445e-01 -8.286590000000000344e-01 1.377140000000000031e-01 2.701399999999999912e-01 -4.381099999999999994e-01 -5.625320000000000320e-01 -5.327960000000000473e-01 -4.279950000000000143e-01 4.789800000000000307e-02 -4.777339999999999920e-01 1.696288999999999936e+00 -1.826780000000000070e-01 4.121699999999999670e-02
2.869820000000000149e-01 -1.389249999999999929e-01 3.718629999999999991e-01 3.962499999999999911e-01 -5.630870000000000042e-01 -7.598730000000000206e-01 6.425950000000000273e-01 5.311979999999999480e-01 -2.022359999999999991e-01 -4.915229999999999877e-01 9.246000000000000746e-03 2.588329999999999798e-01 -8.343040000000000456e-01 1.615669999999999884e-01 3.314119999999999844e-01
3.922289999999999943e-01 4.553800000000000209e-02 1.073301999999999978e+00 -4.246519999999999739e-01 -2.991999999999999868e-03 4.181599999999999762e-01 -4.457369999999999943e-01 -5.164200000000000040e-02 -1.396370000000000111e-01 7.275399999999999923e-02 -7.386059999999999848e-01 -3.628699999999999981e-02 4.054050000000000153e-01 7.477009999999999490e-01 -1.315539000000000014e+00
3.534109999999999752e-01 -3.213779999999999970e-01 -1.861299999999999899e-01 -2.584629999999999983e-01 4.197529999999999872e-01 2.411719999999999975e-01 4.422730000000000272e-01 9.039000000000000368e-01 -6.302119999999999944e-01 8.529719999999999525e-01 1.354080000000000006e-01 8.363140000000000018e-01 -1.390193000000000012e+00 -1.137683999999999918e+00 -2.611439999999999872e-01
2.569409999999999750e-01 3.525730000000000253e-01 2.607619999999999938e-01 4.472399999999999987e-02 2.182449999999999946e-01 3.801959999999999784e-01 1.482120000000000104e-01 2.258030000000000037e-01 -4.616140000000000243e-01 -9.174899999999999722e-02 -3.720300000000000273e-01 -3.544200000000000128e-02 -3.581269999999999731e-01 -4.245909999999999962e-01 -1.439020000000000021e-01
-1.183420000000000027e-01 1.080369999999999941e-01 2.562860000000000138e-01 2.379560000000000008e-01 -1.684569999999999956e-01 -2.210560000000000025e-01 3.391939999999999955e-01 -1.246759999999999952e-01 3.995000000000000218e-01 9.805660000000000487e-01 -1.509340000000000126e-01 1.167634999999999978e+00 -1.439373000000000014e+00 3.360299999999999954e-01 -1.602365000000000039e+00
6.483700000000000574e-02 -7.456610000000000182e-01 -8.336209999999999454e-01 1.412080000000000002e-01 -3.624299999999999744e-01 2.757269999999999999e-01 -9.234499999999999653e-02 2.469719999999999971e-01 4.641689999999999983e-01 4.561000000000000054e-01 -3.899369999999999781e-01 -5.277169999999999916e-01 -5.697999999999999732e-01 1.251057000000000086e+00 6.214420000000000499e-01
6.013910000000000089e-01 -2.474220000000000030e-01 -2.008580000000000088e-01 1.874669999999999948e-01 1.354080000000000006e-01 3.255680000000000240e-01 -1.755780000000000118e-01 -3.483740000000000170e-01 -3.432859999999999800e-01 3.278739999999999988e-01 5.317790000000000017e-01 -5.015239999999999698e-01 -9.411540000000000461e-01 -7.139099999999999613e-02 7.200999999999999623e-01
-6.577790000000000026e-01 2.175850000000000006e-01 2.608880000000000088e-01 3.614400000000000251e-02 1.427779999999999883e-01 -3.867979999999999752e-01 1.359789999999999888e-01 -7.846680000000000321e-01 4.836329999999999796e-01 7.116419999999999968e-01 2.621029999999999749e-01 -3.727369999999999850e-01 -2.259859999999999924e-01 1.622030000000000138e-01 1.501399999999999957e-02
-1.158884000000000025e+00 -2.024070000000000036e-01 -1.340910999999999964e+00 6.681510000000000504e-01 4.573949999999999960e-01 -4.955720000000000125e-01 1.828150000000000053e-01 1.528211999999999904e+00 2.926949999999999830e-01 1.880229999999999957e-01 -8.198969999999999869e-01 -7.219499999999999529e-02 1.198940000000000006e-01 -9.633019999999999916e-01 1.615982999999999947e+00
1.028609999999999941e-01 -3.317500000000000310e-02 -6.452820000000000222e-01 -6.777720000000000411e-01 4.681669999999999998e-01 -6.052739999999999787e-01 -1.163693000000000088e+00 -4.586900000000000005e-02 1.025400000000000061e-01 4.685409999999999853e-01 5.843450000000000033e-01 -2.758470000000000089e-01 1.270062999999999942e+00 -9.734690000000000287e-01 1.423863000000000101e+00
