 vasp.5.4.4.18Apr17-6-g9f103f2a35 (build Jul 12 2018 13:43:46) complex           
 executed on             LinuxGNU date 2019.06.24  13:12:29
 running on    1 total cores
 distrk:  each k-point on    1 cores,    1 groups
 distr:  one band on NCORES_PER_BAND=   1 cores,    1 groups


--------------------------------------------------------------------------------------------------------


 INCAR:
 POTCAR:    PAW_PBE H 15Jun2001                   
 POTCAR:    PAW_PBE C 08Apr2002                   
 POTCAR:    PAW_PBE H 15Jun2001                   
   VRHFIN =H: ultrasoft test                                                    
   LEXCH  = PE                                                                  
   EATOM  =    12.4884 eV,    0.9179 Ry                                         
                                                                                
   TITEL  = PAW_PBE H 15Jun2001                                                 
   LULTRA =        F    use ultrasoft PP ?                                      
   IUNSCR =        0    unscreen: 0-lin 1-nonlin 2-no                           
   RPACOR =    0.000    partial core radius                                     
   POMASS =    1.000; ZVAL   =    1.000    mass and valenz                      
   RCORE  =    1.100    outmost cutoff radius                                   
   RWIGS  =    0.700; RWIGS  =    0.370    wigner-seitz radius (au A)           
   ENMAX  =  250.000; ENMIN  =  200.000 eV                                      
   RCLOC  =    0.701    cutoff for local pot                                    
   LCOR   =        T    correct aug charges                                     
   LPAW   =        T    paw PP                                                  
   EAUG   =  400.000                                                            
   RMAX   =    1.123    core radius for proj-oper                               
   RAUG   =    1.200    factor for augmentation sphere                          
   RDEP   =    1.112    radius for radial grids                                 
   RDEPT  =    0.926    core radius for aug-charge                              
                                                                                
   Atomic configuration                                                         
    2 entries                                                                   
     n  l   j            E        occ.                                          
     1  0  0.50        -6.4927   1.0000                                         
     2  1  0.50        -3.4015   0.0000                                         
   Description                                                                  
     l       E           TYP  RCUT    TYP  RCUT                                 
     0     -6.4927494     23  1.100                                             
     0      6.8029130     23  1.100                                             
     1     -4.0817478     23  1.100                                             
  local pseudopotential read in
  atomic valenz-charges read in
  non local Contribution for L=           0  read in
    real space projection operators read in
  non local Contribution for L=           0  read in
    real space projection operators read in
  non local Contribution for L=           1  read in
    real space projection operators read in
    PAW grid and wavefunctions read in

   number of l-projection  operators is LMAX  =           3
   number of lm-projection operators is LMMAX =           5

 POTCAR:    PAW_PBE C 08Apr2002                   
   VRHFIN =C: s2p2                                                              
   LEXCH  = PE                                                                  
   EATOM  =   147.1560 eV,   10.8157 Ry                                         
                                                                                
   TITEL  = PAW_PBE C 08Apr2002                                                 
   LULTRA =        F    use ultrasoft PP ?                                      
   IUNSCR =        1    unscreen: 0-lin 1-nonlin 2-no                           
   RPACOR =    1.200    partial core radius                                     
   POMASS =   12.011; ZVAL   =    4.000    mass and valenz                      
   RCORE  =    1.500    outmost cutoff radius                                   
   RWIGS  =    1.630; RWIGS  =    0.863    wigner-seitz radius (au A)           
   ENMAX  =  400.000; ENMIN  =  300.000 eV                                      
   ICORE  =        2    local potential                                         
   LCOR   =        T    correct aug charges                                     
   LPAW   =        T    paw PP                                                  
   EAUG   =  644.873                                                            
   DEXC   =    0.000                                                            
   RMAX   =    1.529    core radius for proj-oper                               
   RAUG   =    1.300    factor for augmentation sphere                          
   RDEP   =    1.501    radius for radial grids                                 
   RDEPT  =    1.300    core radius for aug-charge                              
                                                                                
   Atomic configuration                                                         
    4 entries                                                                   
     n  l   j            E        occ.                                          
     1  0  0.50      -273.3789   2.0000                                         
     2  0  0.50       -13.7508   2.0000                                         
     2  1  0.50        -5.2854   2.0000                                         
     3  2  1.50        -5.4423   0.0000                                         
   Description                                                                  
     l       E           TYP  RCUT    TYP  RCUT                                 
     0    -13.7508458     23  1.200                                             
     0     -8.2022199     23  1.200                                             
     1     -5.2854383     23  1.500                                             
     1     34.0145650     23  1.500                                             
     2     -5.4423304      7  1.500                                             
  local pseudopotential read in
  partial core-charges read in
  partial kinetic energy density read in
  atomic valenz-charges read in
  non local Contribution for L=           0  read in
    real space projection operators read in
  non local Contribution for L=           0  read in
    real space projection operators read in
  non local Contribution for L=           1  read in
    real space projection operators read in
  non local Contribution for L=           1  read in
    real space projection operators read in
    PAW grid and wavefunctions read in

   number of l-projection  operators is LMAX  =           4
   number of lm-projection operators is LMMAX =           8


 ----------------------------------------------------------------------------- 
|                                                                             |
|  ADVICE TO THIS USER RUNNING 'VASP/VAMP'   (HEAR YOUR MASTER'S VOICE ...):  |
|                                                                             |
|      You have a (more or less) 'small supercell' and for smaller cells      |
|      it is recommended  to use the reciprocal-space projection scheme!      |
|      The real space optimization is not  efficient for small cells and it   |
|      is also less accurate ...                                              |
|      Therefore set LREAL=.FALSE. in the  INCAR file                         |
|                                                                             |
 ----------------------------------------------------------------------------- 

 Optimization of the real space projectors (new method)

 maximal supplied QI-value         = 34.20
 optimisation between [QCUT,QGAM] = [  9.92, 20.18] = [ 27.55,114.04] Ry 
 Optimized for a Real-space Cutoff    1.34 Angstroem

   l    n(q)    QCUT    max X(q) W(low)/X(q) W(high)/X(q)  e(spline) 
   0      8     9.919    19.460    0.16E-03    0.20E-03    0.36E-06
   0      8     9.919    12.209    0.16E-03    0.20E-03    0.35E-06
   1      8     9.919     4.655    0.19E-03    0.46E-03    0.40E-06
 Optimization of the real space projectors (new method)

 maximal supplied QI-value         = 25.13
 optimisation between [QCUT,QGAM] = [ 10.05, 20.36] = [ 28.30,116.06] Ry 
 Optimized for a Real-space Cutoff    1.51 Angstroem

   l    n(q)    QCUT    max X(q) W(low)/X(q) W(high)/X(q)  e(spline) 
   0      9    10.053   115.676    0.19E-03    0.21E-03    0.38E-06
   0      9    10.053    87.132    0.19E-03    0.21E-03    0.38E-06
   1      9    10.053     4.429    0.87E-04    0.11E-03    0.39E-06
   1      9    10.053     2.733    0.59E-04    0.62E-04    0.43E-06
  PAW_PBE H 15Jun2001                   :
 energy of atom  1       EATOM=  -12.4884
 kinetic energy error for atom=    0.0098 (will be added to EATOM!!)
  PAW_PBE C 08Apr2002                   :
 energy of atom  2       EATOM= -147.1560
 kinetic energy error for atom=    0.0288 (will be added to EATOM!!)


 POSCAR: POSCAR file written by OVITO            
  positions in cartesian coordinates
  No initial velocities read in
 exchange correlation table for  LEXCH =        8
   RHO(1)=    0.500       N(1)  =     2000
   RHO(2)=  100.500       N(2)  =     4000



--------------------------------------------------------------------------------------------------------


 ion  position               nearest neighbor table
   1  0.476  0.587  0.445-   5 1.11
   2  0.500  0.436  0.559-   5 1.06
   3  0.612  0.442  0.395-   5 1.11
   4  0.424  0.398  0.380-   5 1.11
   5  0.503  0.467  0.446-   2 1.06   1 1.11   3 1.11   4 1.11


IMPORTANT INFORMATION: All symmetrisations will be switched off!
NOSYMM: (Re-)initialisation of all symmetry stuff for point group C_1.




Automatic generation of k-mesh.
 generate k-points for:    1    1    1
Space group operators:
 irot       det(A)        alpha          n_x          n_y          n_z        tau_x        tau_y        tau_z
    1     1.000000     0.000000     1.000000     0.000000     0.000000     0.000000     0.000000     0.000000
 
 Subroutine IBZKPT returns following result:
 ===========================================
 
 Found      1 irreducible k-points:
 
 Following reciprocal coordinates:
            Coordinates               Weight
  0.000000  0.000000  0.000000      1.000000
 
 Following cartesian coordinates:
            Coordinates               Weight
  0.000000  0.000000  0.000000      1.000000
 


--------------------------------------------------------------------------------------------------------




 Dimension of arrays:
   k-points           NKPTS =      1   k-points in BZ     NKDIM =      1   number of bands    NBANDS=      8
   number of dos      NEDOS =    301   number of ions     NIONS =      5
   non local maximal  LDIM  =      4   non local SUM 2l+1 LMDIM =      8
   total plane-waves  NPLWV = 216000
   max r-space proj   IRMAX =   4258   max aug-charges    IRDMAX=   3653
   dimension x,y,z NGX =    60 NGY =   60 NGZ =   60
   dimension x,y,z NGXF=   120 NGYF=  120 NGZF=  120
   support grid    NGXF=   120 NGYF=  120 NGZF=  120
   ions per type =               4   1
   NGX,Y,Z   is equivalent  to a cutoff of  10.95, 11.00, 11.16 a.u.
   NGXF,Y,Z  is equivalent  to a cutoff of  21.90, 22.00, 22.31 a.u.

 SYSTEM =  unknown system                          
 POSCAR =  POSCAR file written by OVITO            

 Startparameter for this run:
   NWRITE =      2    write-flag & timer
   PREC   = a         normal or accurate (medium, high low for compatibility)
   ISTART =      0    job   : 0-new  1-cont  2-samecut
   ICHARG =      2    charge: 1-file 2-atom 10-const
   ISPIN  =      1    spin polarized calculation?
   LNONCOLLINEAR =      F non collinear calculations
   LSORBIT =      F    spin-orbit coupling
   INIWAV =      1    electr: 0-lowe 1-rand  2-diag
   LASPH  =      F    aspherical Exc in radial PAW
   METAGGA=      F    non-selfconsistent MetaGGA calc.

 Electronic Relaxation 1
   ENCUT  =  400.0 eV  29.40 Ry    5.42 a.u.  14.85 14.79 14.58*2*pi/ulx,y,z
   ENINI  =  400.0     initial cutoff
   ENAUG  =  644.9 eV  augmentation charge cutoff
   NELM   =    120;   NELMIN=  4; NELMDL= -5     # of ELM steps 
   EDIFF  = 0.1E-05   stopping-criterion for ELM
   LREAL  =      T    real-space projection
   NLSPLINE    = F    spline interpolate recip. space projectors
   LCOMPAT=      F    compatible to vasp.4.4
   GGA_COMPAT  = T    GGA compatible to vasp.4.4-vasp.4.6
   LMAXPAW     = -100 max onsite density
   LMAXMIX     =    2 max onsite mixed and CHGCAR
   VOSKOWN=      0    Vosko Wilk Nusair interpolation
   ROPT   =   -0.00025  -0.00025
 Ionic relaxation
   EDIFFG = 0.1E-04   stopping-criterion for IOM
   NSW    =      0    number of steps for IOM
   NBLOCK =      1;   KBLOCK =      1    inner block; outer block 
   IBRION =     -1    ionic relax: 0-MD 1-quasi-New 2-CG
   NFREE  =      0    steps in history (QN), initial steepest desc. (CG)
   ISIF   =      2    stress and relaxation
   IWAVPR =     10    prediction:  0-non 1-charg 2-wave 3-comb
   ISYM   =      0    0-nonsym 1-usesym 2-fastsym
   LCORR  =      T    Harris-Foulkes like correction to forces

   POTIM  = 0.5000    time-step for ionic-motion
   TEIN   =    0.0    initial temperature
   TEBEG  =    0.0;   TEEND  =   0.0 temperature during run
   SMASS  =  -3.00    Nose mass-parameter (am)
   estimated Nose-frequenzy (Omega)   =  0.10E-29 period in steps =****** mass=  -0.190E-26a.u.
   SCALEE = 1.0000    scale energy and forces
   NPACO  =    256;   APACO  = 16.0  distance and # of slots for P.C.
   PSTRESS=    0.0 pullay stress

  Mass of Ions in am
   POMASS =   1.00 12.01
  Ionic Valenz
   ZVAL   =   1.00  4.00
  Atomic Wigner-Seitz radii
   RWIGS  =  -1.00 -1.00
  virtual crystal weights 
   VCA    =   1.00  1.00
   NELECT =       8.0000    total number of electrons
   NUPDOWN=      -1.0000    fix difference up-down

 DOS related values:
   EMIN   =  10.00;   EMAX   =-10.00  energy-range for DOS
   EFERMI =   0.00
   ISMEAR =     0;   SIGMA  =   0.05  broadening in eV -4-tet -1-fermi 0-gaus

 Electronic relaxation 2 (details)
   IALGO  =     38    algorithm
   LDIAG  =      T    sub-space diagonalisation (order eigenvalues)
   LSUBROT=      F    optimize rotation matrix (better conditioning)
   TURBO    =      0    0=normal 1=particle mesh
   IRESTART =      0    0=no restart 2=restart with 2 vectors
   NREBOOT  =      0    no. of reboots
   NMIN     =      0    reboot dimension
   EREF     =   0.00    reference energy to select bands
   IMIX   =      4    mixing-type and parameters
     AMIX     =   0.40;   BMIX     =  1.00
     AMIX_MAG =   1.60;   BMIX_MAG =  1.00
     AMIN     =   0.10
     WC   =   100.;   INIMIX=   1;  MIXPRE=   1;  MAXMIX= -45

 Intra band minimization:
   WEIMIN = 0.0000     energy-eigenvalue tresh-hold
   EBREAK =  0.31E-07  absolut break condition
   DEPER  =   0.30     relativ break condition  

   TIME   =   0.40     timestep for ELM

  volume/ion in A,a.u.               =     147.62       996.16
  Fermi-wavevector in a.u.,A,eV,Ry     =   0.362302  0.684652  1.785942  0.131263
  Thomas-Fermi vector in A             =   1.283481

 Write flags
   LWAVE        =      F    write WAVECAR
   LDOWNSAMPLE  =      F    k-point downsampling of WAVECAR
   LCHARG       =      F    write CHGCAR
   LVTOT        =      F    write LOCPOT, total local potential
   LVHAR        =      F    write LOCPOT, Hartree potential only
   LELF         =      F    write electronic localiz. function (ELF)
   LORBIT       =      0    0 simple, 1 ext, 2 COOP (PROOUT), +10 PAW based schemes


 Dipole corrections
   LMONO  =      F    monopole corrections only (constant potential shift)
   LDIPOL =      F    correct potential (dipole corrections)
   IDIPOL =      0    1-x, 2-y, 3-z, 4-all directions 
   EPSILON=  1.0000000 bulk dielectric constant

 Exchange correlation treatment:
   GGA     =    --    GGA type
   LEXCH   =     8    internal setting for exchange type
   VOSKOWN=      0    Vosko Wilk Nusair interpolation
   LHFCALC =     F    Hartree Fock is set to
   LHFONE  =     F    Hartree Fock one center treatment
   AEXX    =    0.0000 exact exchange contribution

 Linear response parameters
   LEPSILON=     F    determine dielectric tensor
   LRPA    =     F    only Hartree local field effects (RPA)
   LNABLA  =     F    use nabla operator in PAW spheres
   LVEL    =     F    velocity operator in full k-point grid
   LINTERFAST=   F  fast interpolation
   KINTER  =     0    interpolate to denser k-point grid
   CSHIFT  =0.1000    complex shift for real part using Kramers Kronig
   OMEGAMAX=  -1.0    maximum frequency
   DEG_THRESHOLD= 0.2000000E-02 threshold for treating states as degnerate
   RTIME   =   -0.100 relaxation time in fs
  (WPLASMAI=    0.000 imaginary part of plasma frequency in eV, 0.658/RTIME)
   DFIELD  = 0.0000000 0.0000000 0.0000000 field for delta impulse in time

 Orbital magnetization related:
   ORBITALMAG=     F  switch on orbital magnetization
   LCHIMAG   =     F  perturbation theory with respect to B field
   DQ        =  0.001000  dq finite difference perturbation B field
   LLRAUG    =     F  two centre corrections for induced B field



--------------------------------------------------------------------------------------------------------


 Static calculation
 charge density and potential will be updated during run
 non-spin polarized calculation
 Variant of blocked Davidson
 Davidson routine will perform the subspace rotation
 perform sub-space diagonalisation
    after iterative eigenvector-optimisation
 modified Broyden-mixing scheme, WC =      100.0
 initial mixing is a Kerker type mixing with AMIX =  0.4000 and BMIX =      1.0000
 Hartree-type preconditioning will be used
 using additional bands            4
 real space projection scheme for non local part
 use partial core corrections
 calculate Harris-corrections to forces   (improved forces if not selfconsistent)
 use gradient corrections 
 use of overlap-Matrix (Vanderbilt PP)
 Gauss-broadening in eV      SIGMA  =   0.05


--------------------------------------------------------------------------------------------------------


  energy-cutoff  :      400.00
  volume of cell :      738.08
      direct lattice vectors                 reciprocal lattice vectors
     9.107473400  0.000000000  0.000000000     0.109799936  0.000796242 -0.000022904
    -0.065746900  9.066346200  0.000000000    -0.000000000  0.110298016  0.002425836
     0.003290200 -0.196591300  8.938620600     0.000000000 -0.000000000  0.111874085

  length of vectors
     9.107473400  9.066584587  8.940782807     0.109802826  0.110324689  0.111874085



 k-points in units of 2pi/SCALE and weight: read from INCAR                         
   0.00000000  0.00000000  0.00000000       1.000

 k-points in reciprocal lattice and weights: read from INCAR                         
   0.00000000  0.00000000  0.00000000       1.000

 position of ions in fractional coordinates (direct lattice) 
   0.47640778  0.58660718  0.44547252
   0.50012516  0.43557485  0.55930663
   0.61180062  0.44180356  0.39460784
   0.42428962  0.39800190  0.37995234
   0.50346640  0.46745715  0.44570074

 position of ions in cartesian coordinates  (Angst):
   4.30176930  5.23080780  3.98190980
   4.52807910  3.83911760  4.99942980
   5.54420900  3.92796760  3.52724980
   3.83928920  3.53372770  3.39624980
   4.55603940  4.15050750  3.98394980



--------------------------------------------------------------------------------------------------------


 k-point  1 :   0.0000 0.0000 0.0000  plane waves:   13405

 maximum and minimum number of plane-waves per node :     13405    13405

 maximum number of plane-waves:     13405
 maximum index in each direction: 
   IXMAX=   14   IYMAX=   14   IZMAX=   14
   IXMIN=  -14   IYMIN=  -14   IZMIN=  -14


 serial   3D FFT for wavefunctions
 parallel 3D FFT for charge:
    minimum data exchange during FFTs selected (reduces bandwidth)


 total amount of memory used by VASP MPI-rank0   199284. kBytes
=======================================================================

   base      :      30000. kBytes
   nonlr-proj:       1149. kBytes
   fftplans  :      59784. kBytes
   grid      :     106617. kBytes
   one-center:         15. kBytes
   wavefun   :       1719. kBytes

     INWAV:  cpu time    0.0000: real time    0.0000
 Broyden mixing: mesh for mixing (old mesh)
   NGX = 29   NGY = 29   NGZ = 29
  (NGX  =120   NGY  =120   NGZ  =120)
  gives a total of  24389 points

 initial charge density was supplied:
 charge density of overlapping atoms calculated
 number of electron       8.0000000 magnetization 
 keeping initial charge density in first step


--------------------------------------------------------------------------------------------------------


 Maximum index for non-local projection operator         4079
 Maximum index for augmentation-charges         3349 (set IRDMAX)


--------------------------------------------------------------------------------------------------------


 First call to EWALD:  gamma=   0.196
 Maximum number of real-space cells 3x 3x 3
 Maximum number of reciprocal cells 3x 3x 3

    FEWALD:  cpu time    0.0007: real time    0.0007


--------------------------------------- Iteration      1(   1)  ---------------------------------------


    POTLOK:  cpu time    1.2424: real time    1.2455
    SETDIJ:  cpu time    0.0068: real time    0.0069
     EDDAV:  cpu time    0.3132: real time    0.3139
       DOS:  cpu time    0.0001: real time    0.0001
    --------------------------------------------
      LOOP:  cpu time    1.5625: real time    1.5664

 eigenvalue-minimisations  :    16
 total energy-change (2. order) : 0.5611227E+02  (-0.1921470E+03)
 number of electron       8.0000000 magnetization 
 augmentation part        8.0000000 magnetization 

 Free energy of the ion-electron system (eV)
  ---------------------------------------------------
  alpha Z        PSCENC =         0.32821958
  Ewald energy   TEWEN  =       114.78872985
  -Hartree energ DENC   =      -230.93208404
  -exchange      EXHF   =         0.00000000
  -V(xc)+E(xc)   XCENC  =        21.99913882
  PAW double counting   =       117.05815612     -117.66307307
  entropy T*S    EENTRO =        -0.00000000
  eigenvalues    EBANDS =       -46.50856758
  atomic energy  EATOM  =       197.04175453
  Solvation  Ediel_sol  =         0.00000000
  ---------------------------------------------------
  free energy    TOTEN  =        56.11227421 eV

  energy without entropy =       56.11227421  energy(sigma->0) =       56.11227421


--------------------------------------------------------------------------------------------------------




--------------------------------------- Iteration      1(   2)  ---------------------------------------


     EDDAV:  cpu time    0.4394: real time    0.4407
       DOS:  cpu time    0.0001: real time    0.0001
    --------------------------------------------
      LOOP:  cpu time    0.4395: real time    0.4408

 eigenvalue-minimisations  :    24
 total energy-change (2. order) :-0.6714241E+02  (-0.6714241E+02)
 number of electron       8.0000000 magnetization 
 augmentation part        8.0000000 magnetization 

 Free energy of the ion-electron system (eV)
  ---------------------------------------------------
  alpha Z        PSCENC =         0.32821958
  Ewald energy   TEWEN  =       114.78872985
  -Hartree energ DENC   =      -230.93208404
  -exchange      EXHF   =         0.00000000
  -V(xc)+E(xc)   XCENC  =        21.99913882
  PAW double counting   =       117.05815612     -117.66307307
  entropy T*S    EENTRO =        -0.00000000
  eigenvalues    EBANDS =      -113.65097374
  atomic energy  EATOM  =       197.04175453
  Solvation  Ediel_sol  =         0.00000000
  ---------------------------------------------------
  free energy    TOTEN  =       -11.03013194 eV

  energy without entropy =      -11.03013194  energy(sigma->0) =      -11.03013194


--------------------------------------------------------------------------------------------------------




--------------------------------------- Iteration      1(   3)  ---------------------------------------


     EDDAV:  cpu time    0.3286: real time    0.3294
       DOS:  cpu time    0.0001: real time    0.0001
    --------------------------------------------
      LOOP:  cpu time    0.3287: real time    0.3295

 eigenvalue-minimisations  :    16
 total energy-change (2. order) :-0.1550056E+02  (-0.1550056E+02)
 number of electron       8.0000000 magnetization 
 augmentation part        8.0000000 magnetization 

 Free energy of the ion-electron system (eV)
  ---------------------------------------------------
  alpha Z        PSCENC =         0.32821958
  Ewald energy   TEWEN  =       114.78872985
  -Hartree energ DENC   =      -230.93208404
  -exchange      EXHF   =         0.00000000
  -V(xc)+E(xc)   XCENC  =        21.99913882
  PAW double counting   =       117.05815612     -117.66307307
  entropy T*S    EENTRO =        -0.00000000
  eigenvalues    EBANDS =      -129.15152879
  atomic energy  EATOM  =       197.04175453
  Solvation  Ediel_sol  =         0.00000000
  ---------------------------------------------------
  free energy    TOTEN  =       -26.53068700 eV

  energy without entropy =      -26.53068700  energy(sigma->0) =      -26.53068700


--------------------------------------------------------------------------------------------------------




--------------------------------------- Iteration      1(   4)  ---------------------------------------


     EDDAV:  cpu time    0.5761: real time    0.5775
       DOS:  cpu time    0.0001: real time    0.0001
    --------------------------------------------
      LOOP:  cpu time    0.5762: real time    0.5776

 eigenvalue-minimisations  :    32
 total energy-change (2. order) :-0.9401195E+00  (-0.9401195E+00)
 number of electron       8.0000000 magnetization 
 augmentation part        8.0000000 magnetization 

 Free energy of the ion-electron system (eV)
  ---------------------------------------------------
  alpha Z        PSCENC =         0.32821958
  Ewald energy   TEWEN  =       114.78872985
  -Hartree energ DENC   =      -230.93208404
  -exchange      EXHF   =         0.00000000
  -V(xc)+E(xc)   XCENC  =        21.99913882
  PAW double counting   =       117.05815612     -117.66307307
  entropy T*S    EENTRO =        -0.00000000
  eigenvalues    EBANDS =      -130.09164825
  atomic energy  EATOM  =       197.04175453
  Solvation  Ediel_sol  =         0.00000000
  ---------------------------------------------------
  free energy    TOTEN  =       -27.47080646 eV

  energy without entropy =      -27.47080646  energy(sigma->0) =      -27.47080646


--------------------------------------------------------------------------------------------------------




--------------------------------------- Iteration      1(   5)  ---------------------------------------


     EDDAV:  cpu time    0.5800: real time    0.5813
       DOS:  cpu time    0.0001: real time    0.0001
    CHARGE:  cpu time    0.0705: real time    0.0707
    MIXING:  cpu time    0.0263: real time    0.0263
    --------------------------------------------
      LOOP:  cpu time    0.6769: real time    0.6785

 eigenvalue-minimisations  :    32
 total energy-change (2. order) :-0.5574672E-03  (-0.5574672E-03)
 number of electron       7.9999998 magnetization 
 augmentation part        0.2247363 magnetization 

 Broyden mixing:
  rms(total) = 0.86921E+00    rms(broyden)= 0.86894E+00
  rms(prec ) = 0.13034E+01
  weight for this iteration     100.00

 Free energy of the ion-electron system (eV)
  ---------------------------------------------------
  alpha Z        PSCENC =         0.32821958
  Ewald energy   TEWEN  =       114.78872985
  -Hartree energ DENC   =      -230.93208404
  -exchange      EXHF   =         0.00000000
  -V(xc)+E(xc)   XCENC  =        21.99913882
  PAW double counting   =       117.05815612     -117.66307307
  entropy T*S    EENTRO =        -0.00000000
  eigenvalues    EBANDS =      -130.09220572
  atomic energy  EATOM  =       197.04175453
  Solvation  Ediel_sol  =         0.00000000
  ---------------------------------------------------
  free energy    TOTEN  =       -27.47136392 eV

  energy without entropy =      -27.47136392  energy(sigma->0) =      -27.47136392


--------------------------------------------------------------------------------------------------------




--------------------------------------- Iteration      1(   6)  ---------------------------------------


    POTLOK:  cpu time    1.2707: real time    1.2737
    SETDIJ:  cpu time    0.0074: real time    0.0075
     EDDAV:  cpu time    0.4813: real time    0.4824
       DOS:  cpu time    0.0001: real time    0.0001
    CHARGE:  cpu time    0.0782: real time    0.0784
    MIXING:  cpu time    0.0285: real time    0.0286
    --------------------------------------------
      LOOP:  cpu time    1.8663: real time    1.8707

 eigenvalue-minimisations  :    24
 total energy-change (2. order) : 0.2869951E+01  (-0.8807122E+00)
 number of electron       7.9999998 magnetization 
 augmentation part        0.1968196 magnetization 

 Broyden mixing:
  rms(total) = 0.44319E+00    rms(broyden)= 0.44306E+00
  rms(prec ) = 0.58071E+00
  weight for this iteration     100.00

 eigenvalues of (default mixing * dielectric matrix)
  average eigenvalue GAMMA=   1.2003
  1.2003

 Free energy of the ion-electron system (eV)
  ---------------------------------------------------
  alpha Z        PSCENC =         0.32821958
  Ewald energy   TEWEN  =       114.78872985
  -Hartree energ DENC   =      -250.59135386
  -exchange      EXHF   =         0.00000000
  -V(xc)+E(xc)   XCENC  =        23.19356879
  PAW double counting   =       237.89783978     -238.67686236
  entropy T*S    EENTRO =        -0.00000000
  eigenvalues    EBANDS =      -108.58330915
  atomic energy  EATOM  =       197.04175453
  Solvation  Ediel_sol  =         0.00000000
  ---------------------------------------------------
  free energy    TOTEN  =       -24.60141284 eV

  energy without entropy =      -24.60141284  energy(sigma->0) =      -24.60141284


--------------------------------------------------------------------------------------------------------




--------------------------------------- Iteration      1(   7)  ---------------------------------------


    POTLOK:  cpu time    1.3820: real time    1.3853
    SETDIJ:  cpu time    0.0073: real time    0.0074
     EDDAV:  cpu time    0.6909: real time    0.6925
       DOS:  cpu time    0.0001: real time    0.0001
    CHARGE:  cpu time    0.0753: real time    0.0755
    MIXING:  cpu time    0.0275: real time    0.0275
    --------------------------------------------
      LOOP:  cpu time    2.1831: real time    2.1883

 eigenvalue-minimisations  :    32
 total energy-change (2. order) : 0.4788459E+00  (-0.7397404E-01)
 number of electron       7.9999998 magnetization 
 augmentation part        0.1883760 magnetization 

 Broyden mixing:
  rms(total) = 0.22619E+00    rms(broyden)= 0.22614E+00
  rms(prec ) = 0.28935E+00
  weight for this iteration     100.00

 eigenvalues of (default mixing * dielectric matrix)
  average eigenvalue GAMMA=   1.7058
  1.2549  2.1566

 Free energy of the ion-electron system (eV)
  ---------------------------------------------------
  alpha Z        PSCENC =         0.32821958
  Ewald energy   TEWEN  =       114.78872985
  -Hartree energ DENC   =      -260.65501352
  -exchange      EXHF   =         0.00000000
  -V(xc)+E(xc)   XCENC  =        23.95322943
  PAW double counting   =       364.86033123     -365.66735620
  entropy T*S    EENTRO =        -0.00000000
  eigenvalues    EBANDS =       -98.77246184
  atomic energy  EATOM  =       197.04175453
  Solvation  Ediel_sol  =         0.00000000
  ---------------------------------------------------
  free energy    TOTEN  =       -24.12256695 eV

  energy without entropy =      -24.12256695  energy(sigma->0) =      -24.12256695


--------------------------------------------------------------------------------------------------------




--------------------------------------- Iteration      1(   8)  ---------------------------------------


    POTLOK:  cpu time    1.4190: real time    1.4224
    SETDIJ:  cpu time    0.0075: real time    0.0075
     EDDAV:  cpu time    0.5333: real time    0.5346
       DOS:  cpu time    0.0001: real time    0.0001
    CHARGE:  cpu time    0.0777: real time    0.0779
    MIXING:  cpu time    0.0302: real time    0.0302
    --------------------------------------------
      LOOP:  cpu time    2.0679: real time    2.0728

 eigenvalue-minimisations  :    24
 total energy-change (2. order) : 0.1627595E+00  (-0.1818570E-01)
 number of electron       7.9999998 magnetization 
 augmentation part        0.1858156 magnetization 

 Broyden mixing:
  rms(total) = 0.27884E-01    rms(broyden)= 0.27852E-01
  rms(prec ) = 0.59356E-01
  weight for this iteration     100.00

 eigenvalues of (default mixing * dielectric matrix)
  average eigenvalue GAMMA=   1.5508
  2.1437  1.1241  1.3845

 Free energy of the ion-electron system (eV)
  ---------------------------------------------------
  alpha Z        PSCENC =         0.32821958
  Ewald energy   TEWEN  =       114.78872985
  -Hartree energ DENC   =      -267.62869427
  -exchange      EXHF   =         0.00000000
  -V(xc)+E(xc)   XCENC  =        24.58089206
  PAW double counting   =       478.27002361     -479.06174780
  entropy T*S    EENTRO =        -0.00000000
  eigenvalues    EBANDS =       -92.27898503
  atomic energy  EATOM  =       197.04175453
  Solvation  Ediel_sol  =         0.00000000
  ---------------------------------------------------
  free energy    TOTEN  =       -23.95980747 eV

  energy without entropy =      -23.95980747  energy(sigma->0) =      -23.95980747


--------------------------------------------------------------------------------------------------------




--------------------------------------- Iteration      1(   9)  ---------------------------------------


    POTLOK:  cpu time    1.3776: real time    1.3809
    SETDIJ:  cpu time    0.0073: real time    0.0073
     EDDAV:  cpu time    0.6870: real time    0.6886
       DOS:  cpu time    0.0001: real time    0.0001
    CHARGE:  cpu time    0.0801: real time    0.0803
    MIXING:  cpu time    0.0310: real time    0.0310
    --------------------------------------------
      LOOP:  cpu time    2.1830: real time    2.1882

 eigenvalue-minimisations  :    32
 total energy-change (2. order) : 0.5142429E-02  (-0.3647116E-03)
 number of electron       7.9999998 magnetization 
 augmentation part        0.1852531 magnetization 

 Broyden mixing:
  rms(total) = 0.15495E-01    rms(broyden)= 0.15491E-01
  rms(prec ) = 0.37676E-01
  weight for this iteration     100.00

 eigenvalues of (default mixing * dielectric matrix)
  average eigenvalue GAMMA=   1.8936
  2.9408  2.4538  0.9796  1.2002

 Free energy of the ion-electron system (eV)
  ---------------------------------------------------
  alpha Z        PSCENC =         0.32821958
  Ewald energy   TEWEN  =       114.78872985
  -Hartree energ DENC   =      -268.94692380
  -exchange      EXHF   =         0.00000000
  -V(xc)+E(xc)   XCENC  =        24.64757638
  PAW double counting   =       473.46826492     -474.25809103
  entropy T*S    EENTRO =        -0.00000000
  eigenvalues    EBANDS =       -91.02419547
  atomic energy  EATOM  =       197.04175453
  Solvation  Ediel_sol  =         0.00000000
  ---------------------------------------------------
  free energy    TOTEN  =       -23.95466504 eV

  energy without entropy =      -23.95466504  energy(sigma->0) =      -23.95466504


--------------------------------------------------------------------------------------------------------




--------------------------------------- Iteration      1(  10)  ---------------------------------------


    POTLOK:  cpu time    1.3274: real time    1.3305
    SETDIJ:  cpu time    0.0073: real time    0.0073
     EDDAV:  cpu time    0.6594: real time    0.6609
       DOS:  cpu time    0.0001: real time    0.0001
    CHARGE:  cpu time    0.0757: real time    0.0759
    MIXING:  cpu time    0.0299: real time    0.0299
    --------------------------------------------
      LOOP:  cpu time    2.0997: real time    2.1047

 eigenvalue-minimisations  :    32
 total energy-change (2. order) : 0.5412103E-02  (-0.4362116E-03)
 number of electron       7.9999998 magnetization 
 augmentation part        0.1850480 magnetization 

 Broyden mixing:
  rms(total) = 0.68443E-02    rms(broyden)= 0.68426E-02
  rms(prec ) = 0.16159E-01
  weight for this iteration     100.00

 eigenvalues of (default mixing * dielectric matrix)
  average eigenvalue GAMMA=   2.0076
  3.2869  1.0056  1.1997  2.2730  2.2730

 Free energy of the ion-electron system (eV)
  ---------------------------------------------------
  alpha Z        PSCENC =         0.32821958
  Ewald energy   TEWEN  =       114.78872985
  -Hartree energ DENC   =      -270.46198887
  -exchange      EXHF   =         0.00000000
  -V(xc)+E(xc)   XCENC  =        24.71585584
  PAW double counting   =       464.05612618     -464.84175650
  entropy T*S    EENTRO =        -0.00000000
  eigenvalues    EBANDS =       -89.57619355
  atomic energy  EATOM  =       197.04175453
  Solvation  Ediel_sol  =         0.00000000
  ---------------------------------------------------
  free energy    TOTEN  =       -23.94925293 eV

  energy without entropy =      -23.94925293  energy(sigma->0) =      -23.94925293


--------------------------------------------------------------------------------------------------------




--------------------------------------- Iteration      1(  11)  ---------------------------------------


    POTLOK:  cpu time    1.1910: real time    1.1938
    SETDIJ:  cpu time    0.0074: real time    0.0074
     EDDAV:  cpu time    0.3612: real time    0.3620
       DOS:  cpu time    0.0001: real time    0.0001
    CHARGE:  cpu time    0.0845: real time    0.0847
    MIXING:  cpu time    0.0335: real time    0.0336
    --------------------------------------------
      LOOP:  cpu time    1.6776: real time    1.6816

 eigenvalue-minimisations  :    16
 total energy-change (2. order) :-0.7834661E-02  (-0.2834673E-03)
 number of electron       7.9999998 magnetization 
 augmentation part        0.1847423 magnetization 

 Broyden mixing:
  rms(total) = 0.55881E-02    rms(broyden)= 0.55874E-02
  rms(prec ) = 0.95459E-02
  weight for this iteration     100.00

 eigenvalues of (default mixing * dielectric matrix)
  average eigenvalue GAMMA=   2.1616
  4.5546  2.9296  2.2638  1.2259  0.9979  0.9979

 Free energy of the ion-electron system (eV)
  ---------------------------------------------------
  alpha Z        PSCENC =         0.32821958
  Ewald energy   TEWEN  =       114.78872985
  -Hartree energ DENC   =      -271.29324473
  -exchange      EXHF   =         0.00000000
  -V(xc)+E(xc)   XCENC  =        24.74956496
  PAW double counting   =       467.07808244     -467.86515117
  entropy T*S    EENTRO =        -0.00000000
  eigenvalues    EBANDS =       -88.78504306
  atomic energy  EATOM  =       197.04175453
  Solvation  Ediel_sol  =         0.00000000
  ---------------------------------------------------
  free energy    TOTEN  =       -23.95708759 eV

  energy without entropy =      -23.95708759  energy(sigma->0) =      -23.95708759


--------------------------------------------------------------------------------------------------------




--------------------------------------- Iteration      1(  12)  ---------------------------------------


    POTLOK:  cpu time    1.1685: real time    1.1712
    SETDIJ:  cpu time    0.0073: real time    0.0073
     EDDAV:  cpu time    0.6076: real time    0.6090
       DOS:  cpu time    0.0001: real time    0.0001
    CHARGE:  cpu time    0.0698: real time    0.0700
    MIXING:  cpu time    0.0301: real time    0.0301
    --------------------------------------------
      LOOP:  cpu time    1.8833: real time    1.8877

 eigenvalue-minimisations  :    32
 total energy-change (2. order) :-0.2924440E-02  (-0.6285797E-04)
 number of electron       7.9999998 magnetization 
 augmentation part        0.1848637 magnetization 

 Broyden mixing:
  rms(total) = 0.21507E-02    rms(broyden)= 0.21506E-02
  rms(prec ) = 0.42310E-02
  weight for this iteration     100.00

 eigenvalues of (default mixing * dielectric matrix)
  average eigenvalue GAMMA=   2.2622
  4.8700  2.8044  2.8044  2.0882  1.2182  1.0250  1.0250

 Free energy of the ion-electron system (eV)
  ---------------------------------------------------
  alpha Z        PSCENC =         0.32821958
  Ewald energy   TEWEN  =       114.78872985
  -Hartree energ DENC   =      -271.00861045
  -exchange      EXHF   =         0.00000000
  -V(xc)+E(xc)   XCENC  =        24.72240878
  PAW double counting   =       463.87341659     -464.66018195
  entropy T*S    EENTRO =        -0.00000000
  eigenvalues    EBANDS =       -89.04574897
  atomic energy  EATOM  =       197.04175453
  Solvation  Ediel_sol  =         0.00000000
  ---------------------------------------------------
  free energy    TOTEN  =       -23.96001204 eV

  energy without entropy =      -23.96001204  energy(sigma->0) =      -23.96001204


--------------------------------------------------------------------------------------------------------




--------------------------------------- Iteration      1(  13)  ---------------------------------------


    POTLOK:  cpu time    1.1678: real time    1.1706
    SETDIJ:  cpu time    0.0073: real time    0.0073
     EDDAV:  cpu time    0.3802: real time    0.3811
       DOS:  cpu time    0.0001: real time    0.0001
    CHARGE:  cpu time    0.0713: real time    0.0715
    MIXING:  cpu time    0.0311: real time    0.0311
    --------------------------------------------
      LOOP:  cpu time    1.6578: real time    1.6618

 eigenvalue-minimisations  :    16
 total energy-change (2. order) :-0.2826028E-02  (-0.5169264E-04)
 number of electron       7.9999998 magnetization 
 augmentation part        0.1848760 magnetization 

 Broyden mixing:
  rms(total) = 0.18817E-02    rms(broyden)= 0.18814E-02
  rms(prec ) = 0.25905E-02
  weight for this iteration     100.00

 eigenvalues of (default mixing * dielectric matrix)
  average eigenvalue GAMMA=   2.3162
  5.7471  3.6269  2.5444  2.2681  1.2650  1.0549  1.0549  0.9678

 Free energy of the ion-electron system (eV)
  ---------------------------------------------------
  alpha Z        PSCENC =         0.32821958
  Ewald energy   TEWEN  =       114.78872985
  -Hartree energ DENC   =      -271.04423150
  -exchange      EXHF   =         0.00000000
  -V(xc)+E(xc)   XCENC  =        24.72253804
  PAW double counting   =       465.61492906     -466.40076985
  entropy T*S    EENTRO =        -0.00000000
  eigenvalues    EBANDS =       -89.01400777
  atomic energy  EATOM  =       197.04175453
  Solvation  Ediel_sol  =         0.00000000
  ---------------------------------------------------
  free energy    TOTEN  =       -23.96283806 eV

  energy without entropy =      -23.96283806  energy(sigma->0) =      -23.96283806


--------------------------------------------------------------------------------------------------------




--------------------------------------- Iteration      1(  14)  ---------------------------------------


    POTLOK:  cpu time    1.2170: real time    1.2199
    SETDIJ:  cpu time    0.0074: real time    0.0074
     EDDAV:  cpu time    0.7919: real time    0.7938
       DOS:  cpu time    0.0001: real time    0.0001
    CHARGE:  cpu time    0.0922: real time    0.0924
    MIXING:  cpu time    0.0402: real time    0.0403
    --------------------------------------------
      LOOP:  cpu time    2.1489: real time    2.1539

 eigenvalue-minimisations  :    32
 total energy-change (2. order) :-0.4522638E-03  (-0.6500974E-05)
 number of electron       7.9999998 magnetization 
 augmentation part        0.1848318 magnetization 

 Broyden mixing:
  rms(total) = 0.58516E-03    rms(broyden)= 0.58487E-03
  rms(prec ) = 0.10063E-02
  weight for this iteration     100.00

 eigenvalues of (default mixing * dielectric matrix)
  average eigenvalue GAMMA=   2.4498
  6.3764  4.0527  3.0238  2.3899  1.7706  1.3086  1.0184  1.0184  1.0897

 Free energy of the ion-electron system (eV)
  ---------------------------------------------------
  alpha Z        PSCENC =         0.32821958
  Ewald energy   TEWEN  =       114.78872985
  -Hartree energ DENC   =      -271.02347373
  -exchange      EXHF   =         0.00000000
  -V(xc)+E(xc)   XCENC  =        24.71899567
  PAW double counting   =       465.04765534     -465.83396975
  entropy T*S    EENTRO =        -0.00000000
  eigenvalues    EBANDS =       -89.03120182
  atomic energy  EATOM  =       197.04175453
  Solvation  Ediel_sol  =         0.00000000
  ---------------------------------------------------
  free energy    TOTEN  =       -23.96329033 eV

  energy without entropy =      -23.96329033  energy(sigma->0) =      -23.96329033


--------------------------------------------------------------------------------------------------------




--------------------------------------- Iteration      1(  15)  ---------------------------------------


    POTLOK:  cpu time    1.4633: real time    1.4667
    SETDIJ:  cpu time    0.0074: real time    0.0074
     EDDAV:  cpu time    0.4026: real time    0.4035
       DOS:  cpu time    0.0001: real time    0.0001
    CHARGE:  cpu time    0.0858: real time    0.0860
    MIXING:  cpu time    0.0356: real time    0.0357
    --------------------------------------------
      LOOP:  cpu time    1.9948: real time    1.9996

 eigenvalue-minimisations  :    16
 total energy-change (2. order) :-0.2719964E-03  (-0.2570799E-05)
 number of electron       7.9999998 magnetization 
 augmentation part        0.1848486 magnetization 

 Broyden mixing:
  rms(total) = 0.39399E-03    rms(broyden)= 0.39395E-03
  rms(prec ) = 0.52381E-03
  weight for this iteration     100.00

 eigenvalues of (default mixing * dielectric matrix)
  average eigenvalue GAMMA=   2.3934
  6.7586  4.4650  2.8403  2.3982  2.1036  1.2801  1.1381  0.9782  0.9860  0.9860

 Free energy of the ion-electron system (eV)
  ---------------------------------------------------
  alpha Z        PSCENC =         0.32821958
  Ewald energy   TEWEN  =       114.78872985
  -Hartree energ DENC   =      -271.01251236
  -exchange      EXHF   =         0.00000000
  -V(xc)+E(xc)   XCENC  =        24.71824589
  PAW double counting   =       464.57915381     -465.36535301
  entropy T*S    EENTRO =        -0.00000000
  eigenvalues    EBANDS =       -89.04180062
  atomic energy  EATOM  =       197.04175453
  Solvation  Ediel_sol  =         0.00000000
  ---------------------------------------------------
  free energy    TOTEN  =       -23.96356232 eV

  energy without entropy =      -23.96356232  energy(sigma->0) =      -23.96356232


--------------------------------------------------------------------------------------------------------




--------------------------------------- Iteration      1(  16)  ---------------------------------------


    POTLOK:  cpu time    1.3017: real time    1.3048
    SETDIJ:  cpu time    0.0075: real time    0.0075
     EDDAV:  cpu time    0.7660: real time    0.7678
       DOS:  cpu time    0.0001: real time    0.0001
    CHARGE:  cpu time    0.0805: real time    0.0807
    MIXING:  cpu time    0.0386: real time    0.0387
    --------------------------------------------
      LOOP:  cpu time    2.1944: real time    2.1996

 eigenvalue-minimisations  :    32
 total energy-change (2. order) :-0.1992955E-04  (-0.1061964E-06)
 number of electron       7.9999998 magnetization 
 augmentation part        0.1848442 magnetization 

 Broyden mixing:
  rms(total) = 0.14007E-03    rms(broyden)= 0.14004E-03
  rms(prec ) = 0.23710E-03
  weight for this iteration     100.00

 eigenvalues of (default mixing * dielectric matrix)
  average eigenvalue GAMMA=   2.4444
  7.0506  4.3210  3.4392  2.2936  2.1536  2.1536  1.3125  1.1421  1.0202  1.0010
  1.0010

 Free energy of the ion-electron system (eV)
  ---------------------------------------------------
  alpha Z        PSCENC =         0.32821958
  Ewald energy   TEWEN  =       114.78872985
  -Hartree energ DENC   =      -271.01940378
  -exchange      EXHF   =         0.00000000
  -V(xc)+E(xc)   XCENC  =        24.71874230
  PAW double counting   =       464.71063006     -465.49690125
  entropy T*S    EENTRO =        -0.00000000
  eigenvalues    EBANDS =       -89.03535354
  atomic energy  EATOM  =       197.04175453
  Solvation  Ediel_sol  =         0.00000000
  ---------------------------------------------------
  free energy    TOTEN  =       -23.96358225 eV

  energy without entropy =      -23.96358225  energy(sigma->0) =      -23.96358225


--------------------------------------------------------------------------------------------------------




--------------------------------------- Iteration      1(  17)  ---------------------------------------


    POTLOK:  cpu time    1.3668: real time    1.3700
    SETDIJ:  cpu time    0.0074: real time    0.0074
     EDDAV:  cpu time    0.7177: real time    0.7194
       DOS:  cpu time    0.0001: real time    0.0001
    CHARGE:  cpu time    0.0876: real time    0.0878
    MIXING:  cpu time    0.0389: real time    0.0390
    --------------------------------------------
      LOOP:  cpu time    2.2186: real time    2.2238

 eigenvalue-minimisations  :    32
 total energy-change (2. order) :-0.2834111E-04  (-0.2838387E-06)
 number of electron       7.9999998 magnetization 
 augmentation part        0.1848329 magnetization 

 Broyden mixing:
  rms(total) = 0.18937E-03    rms(broyden)= 0.18931E-03
  rms(prec ) = 0.26133E-03
  weight for this iteration     100.00

 eigenvalues of (default mixing * dielectric matrix)
  average eigenvalue GAMMA=   2.4076
  7.2706  4.8378  3.4051  2.7626  2.3023  1.7969  1.2797  1.2797  1.0172  1.0172
  0.9606  0.9606

 Free energy of the ion-electron system (eV)
  ---------------------------------------------------
  alpha Z        PSCENC =         0.32821958
  Ewald energy   TEWEN  =       114.78872985
  -Hartree energ DENC   =      -271.03113157
  -exchange      EXHF   =         0.00000000
  -V(xc)+E(xc)   XCENC  =        24.71931128
  PAW double counting   =       464.69943150     -465.48577961
  entropy T*S    EENTRO =        -0.00000000
  eigenvalues    EBANDS =       -89.02414615
  atomic energy  EATOM  =       197.04175453
  Solvation  Ediel_sol  =         0.00000000
  ---------------------------------------------------
  free energy    TOTEN  =       -23.96361059 eV

  energy without entropy =      -23.96361059  energy(sigma->0) =      -23.96361059


--------------------------------------------------------------------------------------------------------




--------------------------------------- Iteration      1(  18)  ---------------------------------------


    POTLOK:  cpu time    1.3067: real time    1.3098
    SETDIJ:  cpu time    0.0073: real time    0.0073
     EDDAV:  cpu time    0.3769: real time    0.3778
       DOS:  cpu time    0.0001: real time    0.0001
    CHARGE:  cpu time    0.0800: real time    0.0802
    MIXING:  cpu time    0.0372: real time    0.0372
    --------------------------------------------
      LOOP:  cpu time    1.8081: real time    1.8124

 eigenvalue-minimisations  :    16
 total energy-change (2. order) :-0.2172924E-05  (-0.6438835E-07)
 number of electron       7.9999998 magnetization 
 augmentation part        0.1848398 magnetization 

 Broyden mixing:
  rms(total) = 0.40392E-04    rms(broyden)= 0.40363E-04
  rms(prec ) = 0.48534E-04
  weight for this iteration     100.00

 eigenvalues of (default mixing * dielectric matrix)
  average eigenvalue GAMMA=   2.3550
  7.3337  4.8356  3.6810  2.5297  2.3405  2.0801  1.3027  1.0166  1.0515  1.0462
  1.0462  1.1759  1.1759

 Free energy of the ion-electron system (eV)
  ---------------------------------------------------
  alpha Z        PSCENC =         0.32821958
  Ewald energy   TEWEN  =       114.78872985
  -Hartree energ DENC   =      -271.02538361
  -exchange      EXHF   =         0.00000000
  -V(xc)+E(xc)   XCENC  =        24.71903275
  PAW double counting   =       464.71544315     -465.50175639
  entropy T*S    EENTRO =        -0.00000000
  eigenvalues    EBANDS =       -89.02965263
  atomic energy  EATOM  =       197.04175453
  Solvation  Ediel_sol  =         0.00000000
  ---------------------------------------------------
  free energy    TOTEN  =       -23.96361277 eV

  energy without entropy =      -23.96361277  energy(sigma->0) =      -23.96361277


--------------------------------------------------------------------------------------------------------




--------------------------------------- Iteration      1(  19)  ---------------------------------------


    POTLOK:  cpu time    1.3373: real time    1.4208
    SETDIJ:  cpu time    0.0063: real time    0.0064
     EDDAV:  cpu time    0.5859: real time    0.5872
       DOS:  cpu time    0.0001: real time    0.0001
    CHARGE:  cpu time    0.0912: real time    0.0914
    MIXING:  cpu time    0.0397: real time    0.0398
    --------------------------------------------
      LOOP:  cpu time    2.0605: real time    2.1457

 eigenvalue-minimisations  :    32
 total energy-change (2. order) :-0.1234429E-05  (-0.4874412E-08)
 number of electron       7.9999998 magnetization 
 augmentation part        0.1848388 magnetization 

 Broyden mixing:
  rms(total) = 0.28710E-04    rms(broyden)= 0.28707E-04
  rms(prec ) = 0.43961E-04
  weight for this iteration     100.00

 eigenvalues of (default mixing * dielectric matrix)
  average eigenvalue GAMMA=   2.3618
  7.3447  4.9705  3.7923  2.8583  2.5587  2.3187  1.8104  1.2667  1.2667  0.9834
  0.9830  0.9830  0.9644  0.9644

 Free energy of the ion-electron system (eV)
  ---------------------------------------------------
  alpha Z        PSCENC =         0.32821958
  Ewald energy   TEWEN  =       114.78872985
  -Hartree energ DENC   =      -271.02670230
  -exchange      EXHF   =         0.00000000
  -V(xc)+E(xc)   XCENC  =        24.71910078
  PAW double counting   =       464.73546075     -465.52176984
  entropy T*S    EENTRO =        -0.00000000
  eigenvalues    EBANDS =       -89.02840736
  atomic energy  EATOM  =       197.04175453
  Solvation  Ediel_sol  =         0.00000000
  ---------------------------------------------------
  free energy    TOTEN  =       -23.96361400 eV

  energy without entropy =      -23.96361400  energy(sigma->0) =      -23.96361400


--------------------------------------------------------------------------------------------------------




--------------------------------------- Iteration      1(  20)  ---------------------------------------


    POTLOK:  cpu time    1.3608: real time    1.3640
    SETDIJ:  cpu time    0.0073: real time    0.0073
     EDDAV:  cpu time    0.4205: real time    0.4215
       DOS:  cpu time    0.0001: real time    0.0001
    --------------------------------------------
      LOOP:  cpu time    1.7886: real time    1.7929

 eigenvalue-minimisations  :    16
 total energy-change (2. order) :-0.7093453E-06  (-0.3821704E-08)
 number of electron       7.9999998 magnetization 
 augmentation part        0.1848388 magnetization 

 Free energy of the ion-electron system (eV)
  ---------------------------------------------------
  alpha Z        PSCENC =         0.32821958
  Ewald energy   TEWEN  =       114.78872985
  -Hartree energ DENC   =      -271.02559744
  -exchange      EXHF   =         0.00000000
  -V(xc)+E(xc)   XCENC  =        24.71904112
  PAW double counting   =       464.74814124     -465.53444032
  entropy T*S    EENTRO =        -0.00000000
  eigenvalues    EBANDS =       -89.02946327
  atomic energy  EATOM  =       197.04175453
  Solvation  Ediel_sol  =         0.00000000
  ---------------------------------------------------
  free energy    TOTEN  =       -23.96361471 eV

  energy without entropy =      -23.96361471  energy(sigma->0) =      -23.96361471


--------------------------------------------------------------------------------------------------------




 average (electrostatic) potential at core
  the test charge radii are     0.5201  0.6991
  (the norm of the test charge is              1.0000)
       1 -41.3955       2 -41.7258       3 -41.3530       4 -41.3179       5 -57.9317



 E-fermi :  -8.6855     XC(G=0):  -0.9160     alpha+bet : -0.2854


 k-point     1 :       0.0000    0.0000    0.0000
  band No.  band energies     occupation 
      1     -16.8332      2.00000
      2      -9.5806      2.00000
      3      -9.1618      2.00000
      4      -8.9391      2.00000
      5      -0.5859      0.00000
      6       1.2310      0.00000
      7       1.2938      0.00000
      8       1.3172      0.00000


--------------------------------------------------------------------------------------------------------


 soft charge-density along one line, spin component           1
         0         1         2         3         4         5         6         7         8         9
 total charge-density along one line

 pseudopotential strength for first ion, spin component:           1
 -2.340  -4.032   0.002  -0.000  -0.000
 -4.032  -6.862   0.005  -0.000  -0.001
  0.002   0.005  -0.335  -0.000  -0.001
 -0.000  -0.000  -0.000  -0.340   0.000
 -0.000  -0.001  -0.001   0.000  -0.339
 total augmentation occupancy for first ion, spin component:           1
  3.491  -0.630  -0.405  -0.002   0.096
 -0.630   0.127   0.075  -0.001  -0.018
 -0.405   0.075   0.048  -0.000  -0.009
 -0.002  -0.001  -0.000   0.009   0.000
  0.096  -0.018  -0.009   0.000   0.010


------------------------ aborting loop because EDIFF is reached ----------------------------------------


    CHARGE:  cpu time    0.0950: real time    0.0952
    FORLOC:  cpu time    0.0882: real time    0.0885
    FORNL :  cpu time    0.1384: real time    0.1387
    STRESS:  cpu time    0.5235: real time    0.5247
    FORCOR:  cpu time    1.4529: real time    1.4564
    FORHAR:  cpu time    0.4319: real time    0.4330
    MIXING:  cpu time    0.0426: real time    0.0427
    OFIELD:  cpu time    0.0000: real time    0.0000

  FORCE on cell =-STRESS in cart. coord.  units (eV):
  Direction    XX          YY          ZZ          XY          YZ          ZX
  --------------------------------------------------------------------------------------
  Alpha Z     0.32822     0.32822     0.32822
  Ewald      32.02920    40.04182    42.71765    -2.18343     4.38851    -2.96524
  Hartree    88.25931    90.83951    91.92684    -0.64680     1.35553    -0.76524
  E(xc)     -27.20499   -27.16903   -27.18321    -0.01082     0.03439    -0.01554
  Local    -180.35265  -189.59247  -192.45036     2.45386    -5.21119     3.17345
  n-local   -15.80498   -15.78735   -15.97278    -0.01418     0.07291    -0.00769
  augment     0.12627     0.11689     0.10533     0.00247    -0.00177     0.00398
  Kinetic   101.96878   100.14023   100.95655     0.56625    -1.67733     0.77763
  Fock        0.00000     0.00000     0.00000     0.00000     0.00000     0.00000
  -------------------------------------------------------------------------------------
  Total      -0.65083    -1.08219     0.42825     0.16735    -1.03895     0.20136
  in kB      -1.41278    -2.34916     0.92963     0.36328    -2.25531     0.43711
  external pressure =       -0.94 kB  Pullay stress =        0.00 kB


 VOLUME and BASIS-vectors are now :
 -----------------------------------------------------------------------------
  energy-cutoff  :      400.00
  volume of cell :      738.08
      direct lattice vectors                 reciprocal lattice vectors
     9.107473400  0.000000000  0.000000000     0.109799936  0.000796242 -0.000022904
    -0.065746900  9.066346200  0.000000000    -0.000000000  0.110298016  0.002425836
     0.003290200 -0.196591300  8.938620600     0.000000000 -0.000000000  0.111874085

  length of vectors
     9.107473400  9.066584587  8.940782807     0.109802826  0.110324689  0.111874085


 FORCES acting on ions
    electron-ion (+dipol)            ewald-force                    non-local-force                 convergence-correction
 -----------------------------------------------------------------------------------------------
   0.118E+02 -.506E+02 0.188E+00   -.129E+02 0.554E+02 -.513E+00   0.123E+01 -.518E+01 -.699E-01   -.485E-05 0.118E-04 -.124E-05
   0.138E+01 0.157E+02 -.518E+02   -.147E+01 -.180E+02 0.587E+02   0.190E+00 0.173E+01 -.577E+01   -.224E-05 -.118E-04 0.525E-05
   -.463E+02 0.102E+02 0.214E+02   0.507E+02 -.109E+02 -.232E+02   -.467E+01 0.113E+01 0.222E+01   0.147E-04 -.287E-05 0.355E-05
   0.335E+02 0.286E+02 0.275E+02   -.368E+02 -.310E+02 -.300E+02   0.332E+01 0.296E+01 0.279E+01   -.141E-04 -.875E-05 0.526E-05
   -.450E+00 -.416E+01 0.408E+01   0.493E+00 0.453E+01 -.495E+01   -.792E-01 -.326E+00 -.552E+00   -.288E-04 -.507E-04 0.312E-04
 -----------------------------------------------------------------------------------------------
   0.126E-01 -.319E+00 0.139E+01   0.355E-14 0.355E-14 -.711E-14   -.121E-01 0.319E+00 -.139E+01   -.354E-04 -.623E-04 0.440E-04


 POSITION                                       TOTAL-FORCE (eV/Angst)
 -----------------------------------------------------------------------------------
      4.30177      5.23081      3.98191         0.146590     -0.430787     -0.395125
      4.52808      3.83912      4.99943         0.105254     -0.551261      1.142187
      5.54421      3.92797      3.52725        -0.224474      0.421870      0.362783
      3.83929      3.53373      3.39625         0.009382      0.518629      0.311665
      4.55604      4.15051      3.98395        -0.036753      0.041549     -1.421511
 -----------------------------------------------------------------------------------
    total drift:                                0.000507      0.000538      0.000442


--------------------------------------------------------------------------------------------------------



  FREE ENERGIE OF THE ION-ELECTRON SYSTEM (eV)
  ---------------------------------------------------
  free  energy   TOTEN  =       -23.96361471 eV

  energy  without entropy=      -23.96361471  energy(sigma->0) =      -23.96361471



--------------------------------------------------------------------------------------------------------


    POTLOK:  cpu time    1.4319: real time    1.4353


--------------------------------------------------------------------------------------------------------


     LOOP+:  cpu time   37.6388: real time   38.2807
    4ORBIT:  cpu time    0.0000: real time    0.0000

 total amount of memory used by VASP MPI-rank0   199284. kBytes
=======================================================================

   base      :      30000. kBytes
   nonlr-proj:       1149. kBytes
   fftplans  :      59784. kBytes
   grid      :     106617. kBytes
   one-center:         15. kBytes
   wavefun   :       1719. kBytes

  
  
 General timing and accounting informations for this job:
 ========================================================
  
                  Total CPU time used (sec):       38.954
                            User time (sec):       38.380
                          System time (sec):        0.574
                         Elapsed time (sec):       40.167
  
                   Maximum memory used (kb):      278416.
                   Average memory used (kb):           0.
  
                          Minor page faults:       168784
                          Major page faults:            0
                 Voluntary context switches:          160
