 vasp.5.4.4.18Apr17-6-g9f103f2a35 (build Jul 12 2018 13:43:46) complex           
 executed on             LinuxGNU date 2019.06.24  13:12:32
 running on    1 total cores
 distrk:  each k-point on    1 cores,    1 groups
 distr:  one band on NCORES_PER_BAND=   1 cores,    1 groups


--------------------------------------------------------------------------------------------------------


 INCAR:
 POTCAR:    PAW_PBE H 15Jun2001                   
 POTCAR:    PAW_PBE C 08Apr2002                   
 POTCAR:    PAW_PBE H 15Jun2001                   
   VRHFIN =H: ultrasoft test                                                    
   LEXCH  = PE                                                                  
   EATOM  =    12.4884 eV,    0.9179 Ry                                         
                                                                                
   TITEL  = PAW_PBE H 15Jun2001                                                 
   LULTRA =        F    use ultrasoft PP ?                                      
   IUNSCR =        0    unscreen: 0-lin 1-nonlin 2-no                           
   RPACOR =    0.000    partial core radius                                     
   POMASS =    1.000; ZVAL   =    1.000    mass and valenz                      
   RCORE  =    1.100    outmost cutoff radius                                   
   RWIGS  =    0.700; RWIGS  =    0.370    wigner-seitz radius (au A)           
   ENMAX  =  250.000; ENMIN  =  200.000 eV                                      
   RCLOC  =    0.701    cutoff for local pot                                    
   LCOR   =        T    correct aug charges                                     
   LPAW   =        T    paw PP                                                  
   EAUG   =  400.000                                                            
   RMAX   =    1.123    core radius for proj-oper                               
   RAUG   =    1.200    factor for augmentation sphere                          
   RDEP   =    1.112    radius for radial grids                                 
   RDEPT  =    0.926    core radius for aug-charge                              
                                                                                
   Atomic configuration                                                         
    2 entries                                                                   
     n  l   j            E        occ.                                          
     1  0  0.50        -6.4927   1.0000                                         
     2  1  0.50        -3.4015   0.0000                                         
   Description                                                                  
     l       E           TYP  RCUT    TYP  RCUT                                 
     0     -6.4927494     23  1.100                                             
     0      6.8029130     23  1.100                                             
     1     -4.0817478     23  1.100                                             
  local pseudopotential read in
  atomic valenz-charges read in
  non local Contribution for L=           0  read in
    real space projection operators read in
  non local Contribution for L=           0  read in
    real space projection operators read in
  non local Contribution for L=           1  read in
    real space projection operators read in
    PAW grid and wavefunctions read in

   number of l-projection  operators is LMAX  =           3
   number of lm-projection operators is LMMAX =           5

 POTCAR:    PAW_PBE C 08Apr2002                   
   VRHFIN =C: s2p2                                                              
   LEXCH  = PE                                                                  
   EATOM  =   147.1560 eV,   10.8157 Ry                                         
                                                                                
   TITEL  = PAW_PBE C 08Apr2002                                                 
   LULTRA =        F    use ultrasoft PP ?                                      
   IUNSCR =        1    unscreen: 0-lin 1-nonlin 2-no                           
   RPACOR =    1.200    partial core radius                                     
   POMASS =   12.011; ZVAL   =    4.000    mass and valenz                      
   RCORE  =    1.500    outmost cutoff radius                                   
   RWIGS  =    1.630; RWIGS  =    0.863    wigner-seitz radius (au A)           
   ENMAX  =  400.000; ENMIN  =  300.000 eV                                      
   ICORE  =        2    local potential                                         
   LCOR   =        T    correct aug charges                                     
   LPAW   =        T    paw PP                                                  
   EAUG   =  644.873                                                            
   DEXC   =    0.000                                                            
   RMAX   =    1.529    core radius for proj-oper                               
   RAUG   =    1.300    factor for augmentation sphere                          
   RDEP   =    1.501    radius for radial grids                                 
   RDEPT  =    1.300    core radius for aug-charge                              
                                                                                
   Atomic configuration                                                         
    4 entries                                                                   
     n  l   j            E        occ.                                          
     1  0  0.50      -273.3789   2.0000                                         
     2  0  0.50       -13.7508   2.0000                                         
     2  1  0.50        -5.2854   2.0000                                         
     3  2  1.50        -5.4423   0.0000                                         
   Description                                                                  
     l       E           TYP  RCUT    TYP  RCUT                                 
     0    -13.7508458     23  1.200                                             
     0     -8.2022199     23  1.200                                             
     1     -5.2854383     23  1.500                                             
     1     34.0145650     23  1.500                                             
     2     -5.4423304      7  1.500                                             
  local pseudopotential read in
  partial core-charges read in
  partial kinetic energy density read in
  atomic valenz-charges read in
  non local Contribution for L=           0  read in
    real space projection operators read in
  non local Contribution for L=           0  read in
    real space projection operators read in
  non local Contribution for L=           1  read in
    real space projection operators read in
  non local Contribution for L=           1  read in
    real space projection operators read in
    PAW grid and wavefunctions read in

   number of l-projection  operators is LMAX  =           4
   number of lm-projection operators is LMMAX =           8


 ----------------------------------------------------------------------------- 
|                                                                             |
|  ADVICE TO THIS USER RUNNING 'VASP/VAMP'   (HEAR YOUR MASTER'S VOICE ...):  |
|                                                                             |
|      You have a (more or less) 'small supercell' and for smaller cells      |
|      it is recommended  to use the reciprocal-space projection scheme!      |
|      The real space optimization is not  efficient for small cells and it   |
|      is also less accurate ...                                              |
|      Therefore set LREAL=.FALSE. in the  INCAR file                         |
|                                                                             |
 ----------------------------------------------------------------------------- 

 Optimization of the real space projectors (new method)

 maximal supplied QI-value         = 34.20
 optimisation between [QCUT,QGAM] = [  9.92, 20.18] = [ 27.55,114.04] Ry 
 Optimized for a Real-space Cutoff    1.34 Angstroem

   l    n(q)    QCUT    max X(q) W(low)/X(q) W(high)/X(q)  e(spline) 
   0      8     9.919    19.460    0.16E-03    0.20E-03    0.36E-06
   0      8     9.919    12.209    0.16E-03    0.20E-03    0.35E-06
   1      8     9.919     4.655    0.19E-03    0.46E-03    0.40E-06
 Optimization of the real space projectors (new method)

 maximal supplied QI-value         = 25.13
 optimisation between [QCUT,QGAM] = [ 10.05, 20.36] = [ 28.30,116.06] Ry 
 Optimized for a Real-space Cutoff    1.51 Angstroem

   l    n(q)    QCUT    max X(q) W(low)/X(q) W(high)/X(q)  e(spline) 
   0      9    10.053   115.676    0.19E-03    0.21E-03    0.38E-06
   0      9    10.053    87.132    0.19E-03    0.21E-03    0.38E-06
   1      9    10.053     4.429    0.87E-04    0.11E-03    0.39E-06
   1      9    10.053     2.733    0.59E-04    0.62E-04    0.43E-06
  PAW_PBE H 15Jun2001                   :
 energy of atom  1       EATOM=  -12.4884
 kinetic energy error for atom=    0.0098 (will be added to EATOM!!)
  PAW_PBE C 08Apr2002                   :
 energy of atom  2       EATOM= -147.1560
 kinetic energy error for atom=    0.0288 (will be added to EATOM!!)


 POSCAR: POSCAR file written by OVITO            
  positions in cartesian coordinates
  No initial velocities read in
 exchange correlation table for  LEXCH =        8
   RHO(1)=    0.500       N(1)  =     2000
   RHO(2)=  100.500       N(2)  =     4000



--------------------------------------------------------------------------------------------------------


 ion  position               nearest neighbor table
   1  0.515  0.453  0.525-   5 1.06
   2  0.565  0.419  0.408-   5 1.11
   3  0.514  0.550  0.424-   5 1.12
   4  0.423  0.448  0.425-   5 1.11
   5  0.503  0.467  0.445-   1 1.06   4 1.11   2 1.11   3 1.12


IMPORTANT INFORMATION: All symmetrisations will be switched off!
NOSYMM: (Re-)initialisation of all symmetry stuff for point group C_1.




Automatic generation of k-mesh.
 generate k-points for:    1    1    1
Space group operators:
 irot       det(A)        alpha          n_x          n_y          n_z        tau_x        tau_y        tau_z
    1     1.000000     0.000000     1.000000     0.000000     0.000000     0.000000     0.000000     0.000000
 
 Subroutine IBZKPT returns following result:
 ===========================================
 
 Found      1 irreducible k-points:
 
 Following reciprocal coordinates:
            Coordinates               Weight
  0.000000  0.000000  0.000000      1.000000
 
 Following cartesian coordinates:
            Coordinates               Weight
  0.000000  0.000000  0.000000      1.000000
 


--------------------------------------------------------------------------------------------------------




 Dimension of arrays:
   k-points           NKPTS =      1   k-points in BZ     NKDIM =      1   number of bands    NBANDS=      8
   number of dos      NEDOS =    301   number of ions     NIONS =      5
   non local maximal  LDIM  =      4   non local SUM 2l+1 LMDIM =      8
   total plane-waves  NPLWV = 680400
   max r-space proj   IRMAX =   4546   max aug-charges    IRDMAX=   3889
   dimension x,y,z NGX =    84 NGY =   90 NGZ =   90
   dimension x,y,z NGXF=   168 NGYF=  180 NGZF=  180
   support grid    NGXF=   168 NGYF=  180 NGZF=  180
   ions per type =               4   1
   NGX,Y,Z   is equivalent  to a cutoff of  10.85, 11.52, 11.49 a.u.
   NGXF,Y,Z  is equivalent  to a cutoff of  21.70, 23.05, 22.97 a.u.

 SYSTEM =  unknown system                          
 POSCAR =  POSCAR file written by OVITO            

 Startparameter for this run:
   NWRITE =      2    write-flag & timer
   PREC   = a         normal or accurate (medium, high low for compatibility)
   ISTART =      0    job   : 0-new  1-cont  2-samecut
   ICHARG =      2    charge: 1-file 2-atom 10-const
   ISPIN  =      1    spin polarized calculation?
   LNONCOLLINEAR =      F non collinear calculations
   LSORBIT =      F    spin-orbit coupling
   INIWAV =      1    electr: 0-lowe 1-rand  2-diag
   LASPH  =      F    aspherical Exc in radial PAW
   METAGGA=      F    non-selfconsistent MetaGGA calc.

 Electronic Relaxation 1
   ENCUT  =  400.0 eV  29.40 Ry    5.42 a.u.  20.99 21.17 21.24*2*pi/ulx,y,z
   ENINI  =  400.0     initial cutoff
   ENAUG  =  644.9 eV  augmentation charge cutoff
   NELM   =    120;   NELMIN=  4; NELMDL= -5     # of ELM steps 
   EDIFF  = 0.1E-05   stopping-criterion for ELM
   LREAL  =      T    real-space projection
   NLSPLINE    = F    spline interpolate recip. space projectors
   LCOMPAT=      F    compatible to vasp.4.4
   GGA_COMPAT  = T    GGA compatible to vasp.4.4-vasp.4.6
   LMAXPAW     = -100 max onsite density
   LMAXMIX     =    2 max onsite mixed and CHGCAR
   VOSKOWN=      0    Vosko Wilk Nusair interpolation
   ROPT   =   -0.00025  -0.00025
 Ionic relaxation
   EDIFFG = 0.1E-04   stopping-criterion for IOM
   NSW    =      0    number of steps for IOM
   NBLOCK =      1;   KBLOCK =      1    inner block; outer block 
   IBRION =     -1    ionic relax: 0-MD 1-quasi-New 2-CG
   NFREE  =      0    steps in history (QN), initial steepest desc. (CG)
   ISIF   =      2    stress and relaxation
   IWAVPR =     10    prediction:  0-non 1-charg 2-wave 3-comb
   ISYM   =      0    0-nonsym 1-usesym 2-fastsym
   LCORR  =      T    Harris-Foulkes like correction to forces

   POTIM  = 0.5000    time-step for ionic-motion
   TEIN   =    0.0    initial temperature
   TEBEG  =    0.0;   TEEND  =   0.0 temperature during run
   SMASS  =  -3.00    Nose mass-parameter (am)
   estimated Nose-frequenzy (Omega)   =  0.10E-29 period in steps =****** mass=  -0.378E-26a.u.
   SCALEE = 1.0000    scale energy and forces
   NPACO  =    256;   APACO  = 16.0  distance and # of slots for P.C.
   PSTRESS=    0.0 pullay stress

  Mass of Ions in am
   POMASS =   1.00 12.01
  Ionic Valenz
   ZVAL   =   1.00  4.00
  Atomic Wigner-Seitz radii
   RWIGS  =  -1.00 -1.00
  virtual crystal weights 
   VCA    =   1.00  1.00
   NELECT =       8.0000    total number of electrons
   NUPDOWN=      -1.0000    fix difference up-down

 DOS related values:
   EMIN   =  10.00;   EMAX   =-10.00  energy-range for DOS
   EFERMI =   0.00
   ISMEAR =     0;   SIGMA  =   0.05  broadening in eV -4-tet -1-fermi 0-gaus

 Electronic relaxation 2 (details)
   IALGO  =     38    algorithm
   LDIAG  =      T    sub-space diagonalisation (order eigenvalues)
   LSUBROT=      F    optimize rotation matrix (better conditioning)
   TURBO    =      0    0=normal 1=particle mesh
   IRESTART =      0    0=no restart 2=restart with 2 vectors
   NREBOOT  =      0    no. of reboots
   NMIN     =      0    reboot dimension
   EREF     =   0.00    reference energy to select bands
   IMIX   =      4    mixing-type and parameters
     AMIX     =   0.40;   BMIX     =  1.00
     AMIX_MAG =   1.60;   BMIX_MAG =  1.00
     AMIN     =   0.10
     WC   =   100.;   INIMIX=   1;  MIXPRE=   1;  MAXMIX= -45

 Intra band minimization:
   WEIMIN = 0.0000     energy-eigenvalue tresh-hold
   EBREAK =  0.31E-07  absolut break condition
   DEPER  =   0.30     relativ break condition  

   TIME   =   0.40     timestep for ELM

  volume/ion in A,a.u.               =     435.19      2936.79
  Fermi-wavevector in a.u.,A,eV,Ry     =   0.252671  0.477480  0.868635  0.063843
  Thomas-Fermi vector in A             =   1.071845

 Write flags
   LWAVE        =      F    write WAVECAR
   LDOWNSAMPLE  =      F    k-point downsampling of WAVECAR
   LCHARG       =      F    write CHGCAR
   LVTOT        =      F    write LOCPOT, total local potential
   LVHAR        =      F    write LOCPOT, Hartree potential only
   LELF         =      F    write electronic localiz. function (ELF)
   LORBIT       =      0    0 simple, 1 ext, 2 COOP (PROOUT), +10 PAW based schemes


 Dipole corrections
   LMONO  =      F    monopole corrections only (constant potential shift)
   LDIPOL =      F    correct potential (dipole corrections)
   IDIPOL =      0    1-x, 2-y, 3-z, 4-all directions 
   EPSILON=  1.0000000 bulk dielectric constant

 Exchange correlation treatment:
   GGA     =    --    GGA type
   LEXCH   =     8    internal setting for exchange type
   VOSKOWN=      0    Vosko Wilk Nusair interpolation
   LHFCALC =     F    Hartree Fock is set to
   LHFONE  =     F    Hartree Fock one center treatment
   AEXX    =    0.0000 exact exchange contribution

 Linear response parameters
   LEPSILON=     F    determine dielectric tensor
   LRPA    =     F    only Hartree local field effects (RPA)
   LNABLA  =     F    use nabla operator in PAW spheres
   LVEL    =     F    velocity operator in full k-point grid
   LINTERFAST=   F  fast interpolation
   KINTER  =     0    interpolate to denser k-point grid
   CSHIFT  =0.1000    complex shift for real part using Kramers Kronig
   OMEGAMAX=  -1.0    maximum frequency
   DEG_THRESHOLD= 0.2000000E-02 threshold for treating states as degnerate
   RTIME   =   -0.100 relaxation time in fs
  (WPLASMAI=    0.000 imaginary part of plasma frequency in eV, 0.658/RTIME)
   DFIELD  = 0.0000000 0.0000000 0.0000000 field for delta impulse in time

 Orbital magnetization related:
   ORBITALMAG=     F  switch on orbital magnetization
   LCHIMAG   =     F  perturbation theory with respect to B field
   DQ        =  0.001000  dq finite difference perturbation B field
   LLRAUG    =     F  two centre corrections for induced B field



--------------------------------------------------------------------------------------------------------


 Static calculation
 charge density and potential will be updated during run
 non-spin polarized calculation
 Variant of blocked Davidson
 Davidson routine will perform the subspace rotation
 perform sub-space diagonalisation
    after iterative eigenvector-optimisation
 modified Broyden-mixing scheme, WC =      100.0
 initial mixing is a Kerker type mixing with AMIX =  0.4000 and BMIX =      1.0000
 Hartree-type preconditioning will be used
 using additional bands            4
 real space projection scheme for non local part
 use partial core corrections
 calculate Harris-corrections to forces   (improved forces if not selfconsistent)
 use gradient corrections 
 use of overlap-Matrix (Vanderbilt PP)
 Gauss-broadening in eV      SIGMA  =   0.05


--------------------------------------------------------------------------------------------------------


  energy-cutoff  :      400.00
  volume of cell :     2175.93
      direct lattice vectors                 reciprocal lattice vectors
    12.868677200  0.000000000  0.000000000     0.077708065 -0.001121393 -0.001130637
     0.187355900 12.983020800  0.000000000     0.000000000  0.077023677 -0.000572415
     0.190889800  0.096788300 13.023756000     0.000000000  0.000000000  0.076782765

  length of vectors
    12.868677200 12.984372581 13.025514471     0.077724380  0.077025804  0.076782765



 k-points in units of 2pi/SCALE and weight: read from INCAR                         
   0.00000000  0.00000000  0.00000000       1.000

 k-points in reciprocal lattice and weights: read from INCAR                         
   0.00000000  0.00000000  0.00000000       1.000

 position of ions in fractional coordinates (direct lattice) 
   0.51526966  0.45310006  0.52463282
   0.56484557  0.41851796  0.40840290
   0.51393542  0.54973073  0.42350608
   0.42262905  0.44847089  0.42493885
   0.50333669  0.46686615  0.44543521

 position of ions in cartesian coordinates  (Angst):
   6.81587700  5.93338580  6.83268980
   7.42518710  5.47315600  5.31893970
   6.79750730  7.17815590  5.51563980
   5.60381700  5.86363600  5.53429990
   6.64977650  6.10444590  5.80123950



--------------------------------------------------------------------------------------------------------


 k-point  1 :   0.0000 0.0000 0.0000  plane waves:   39487

 maximum and minimum number of plane-waves per node :     39487    39487

 maximum number of plane-waves:     39487
 maximum index in each direction: 
   IXMAX=   20   IYMAX=   21   IZMAX=   21
   IXMIN=  -20   IYMIN=  -21   IZMIN=  -21


 serial   3D FFT for wavefunctions
 parallel 3D FFT for charge:
    minimum data exchange during FFTs selected (reduces bandwidth)


 total amount of memory used by VASP MPI-rank0   558118. kBytes
=======================================================================

   base      :      30000. kBytes
   nonlr-proj:       1231. kBytes
   fftplans  :     187240. kBytes
   grid      :     334575. kBytes
   one-center:         15. kBytes
   wavefun   :       5057. kBytes

     INWAV:  cpu time    0.0000: real time    0.0000
 Broyden mixing: mesh for mixing (old mesh)
   NGX = 41   NGY = 43   NGZ = 43
  (NGX  =168   NGY  =180   NGZ  =180)
  gives a total of  75809 points

 initial charge density was supplied:
 charge density of overlapping atoms calculated
 number of electron       8.0000000 magnetization 
 keeping initial charge density in first step


--------------------------------------------------------------------------------------------------------


 Maximum index for non-local projection operator         4376
 Maximum index for augmentation-charges         3582 (set IRDMAX)


--------------------------------------------------------------------------------------------------------


 First call to EWALD:  gamma=   0.137
 Maximum number of real-space cells 3x 3x 3
 Maximum number of reciprocal cells 3x 3x 3

    FEWALD:  cpu time    0.0008: real time    0.0008


--------------------------------------- Iteration      1(   1)  ---------------------------------------


    POTLOK:  cpu time    4.5182: real time    4.5291
    SETDIJ:  cpu time    0.0076: real time    0.0076
     EDDAV:  cpu time    2.4003: real time    2.4060
       DOS:  cpu time    0.0002: real time    0.0002
    --------------------------------------------
      LOOP:  cpu time    6.9263: real time    6.9429

 eigenvalue-minimisations  :    32
 total energy-change (2. order) : 0.7684014E+01  (-0.2023029E+03)
 number of electron       8.0000000 magnetization 
 augmentation part        8.0000000 magnetization 

 Free energy of the ion-electron system (eV)
  ---------------------------------------------------
  alpha Z        PSCENC =         0.11133182
  Ewald energy   TEWEN  =       157.61477470
  -Hartree energ DENC   =      -271.93306629
  -exchange      EXHF   =         0.00000000
  -V(xc)+E(xc)   XCENC  =        22.00160169
  PAW double counting   =       117.05815612     -117.66307307
  entropy T*S    EENTRO =        -0.00000000
  eigenvalues    EBANDS =       -96.54746507
  atomic energy  EATOM  =       197.04175453
  Solvation  Ediel_sol  =         0.00000000
  ---------------------------------------------------
  free energy    TOTEN  =         7.68401443 eV

  energy without entropy =        7.68401443  energy(sigma->0) =        7.68401443


--------------------------------------------------------------------------------------------------------




--------------------------------------- Iteration      1(   2)  ---------------------------------------


     EDDAV:  cpu time    1.3124: real time    1.3157
       DOS:  cpu time    0.0001: real time    0.0001
    --------------------------------------------
      LOOP:  cpu time    1.3125: real time    1.3158

 eigenvalue-minimisations  :    16
 total energy-change (2. order) :-0.3138187E+02  (-0.3138187E+02)
 number of electron       8.0000000 magnetization 
 augmentation part        8.0000000 magnetization 

 Free energy of the ion-electron system (eV)
  ---------------------------------------------------
  alpha Z        PSCENC =         0.11133182
  Ewald energy   TEWEN  =       157.61477470
  -Hartree energ DENC   =      -271.93306629
  -exchange      EXHF   =         0.00000000
  -V(xc)+E(xc)   XCENC  =        22.00160169
  PAW double counting   =       117.05815612     -117.66307307
  entropy T*S    EENTRO =        -0.00000000
  eigenvalues    EBANDS =      -127.92933940
  atomic energy  EATOM  =       197.04175453
  Solvation  Ediel_sol  =         0.00000000
  ---------------------------------------------------
  free energy    TOTEN  =       -23.69785990 eV

  energy without entropy =      -23.69785990  energy(sigma->0) =      -23.69785990


--------------------------------------------------------------------------------------------------------




--------------------------------------- Iteration      1(   3)  ---------------------------------------


     EDDAV:  cpu time    1.2722: real time    1.2752
       DOS:  cpu time    0.0001: real time    0.0001
    --------------------------------------------
      LOOP:  cpu time    1.2723: real time    1.2753

 eigenvalue-minimisations  :    16
 total energy-change (2. order) :-0.3610803E+01  (-0.3610803E+01)
 number of electron       8.0000000 magnetization 
 augmentation part        8.0000000 magnetization 

 Free energy of the ion-electron system (eV)
  ---------------------------------------------------
  alpha Z        PSCENC =         0.11133182
  Ewald energy   TEWEN  =       157.61477470
  -Hartree energ DENC   =      -271.93306629
  -exchange      EXHF   =         0.00000000
  -V(xc)+E(xc)   XCENC  =        22.00160169
  PAW double counting   =       117.05815612     -117.66307307
  entropy T*S    EENTRO =        -0.00000000
  eigenvalues    EBANDS =      -131.54014281
  atomic energy  EATOM  =       197.04175453
  Solvation  Ediel_sol  =         0.00000000
  ---------------------------------------------------
  free energy    TOTEN  =       -27.30866331 eV

  energy without entropy =      -27.30866331  energy(sigma->0) =      -27.30866331


--------------------------------------------------------------------------------------------------------




--------------------------------------- Iteration      1(   4)  ---------------------------------------


     EDDAV:  cpu time    2.2892: real time    2.2947
       DOS:  cpu time    0.0001: real time    0.0001
    --------------------------------------------
      LOOP:  cpu time    2.2893: real time    2.2948

 eigenvalue-minimisations  :    32
 total energy-change (2. order) :-0.1407992E+00  (-0.1407992E+00)
 number of electron       8.0000000 magnetization 
 augmentation part        8.0000000 magnetization 

 Free energy of the ion-electron system (eV)
  ---------------------------------------------------
  alpha Z        PSCENC =         0.11133182
  Ewald energy   TEWEN  =       157.61477470
  -Hartree energ DENC   =      -271.93306629
  -exchange      EXHF   =         0.00000000
  -V(xc)+E(xc)   XCENC  =        22.00160169
  PAW double counting   =       117.05815612     -117.66307307
  entropy T*S    EENTRO =        -0.00000000
  eigenvalues    EBANDS =      -131.68094203
  atomic energy  EATOM  =       197.04175453
  Solvation  Ediel_sol  =         0.00000000
  ---------------------------------------------------
  free energy    TOTEN  =       -27.44946253 eV

  energy without entropy =      -27.44946253  energy(sigma->0) =      -27.44946253


--------------------------------------------------------------------------------------------------------




--------------------------------------- Iteration      1(   5)  ---------------------------------------


     EDDAV:  cpu time    2.4638: real time    2.4696
       DOS:  cpu time    0.0001: real time    0.0001
    CHARGE:  cpu time    0.3997: real time    0.4007
    MIXING:  cpu time    0.1021: real time    0.1024
    --------------------------------------------
      LOOP:  cpu time    2.9658: real time    2.9728

 eigenvalue-minimisations  :    32
 total energy-change (2. order) :-0.4458063E-04  (-0.4458057E-04)
 number of electron       7.9999994 magnetization 
 augmentation part        0.2249439 magnetization 

 Broyden mixing:
  rms(total) = 0.87022E+00    rms(broyden)= 0.86998E+00
  rms(prec ) = 0.11043E+01
  weight for this iteration     100.00

 Free energy of the ion-electron system (eV)
  ---------------------------------------------------
  alpha Z        PSCENC =         0.11133182
  Ewald energy   TEWEN  =       157.61477470
  -Hartree energ DENC   =      -271.93306629
  -exchange      EXHF   =         0.00000000
  -V(xc)+E(xc)   XCENC  =        22.00160169
  PAW double counting   =       117.05815612     -117.66307307
  entropy T*S    EENTRO =        -0.00000000
  eigenvalues    EBANDS =      -131.68098661
  atomic energy  EATOM  =       197.04175453
  Solvation  Ediel_sol  =         0.00000000
  ---------------------------------------------------
  free energy    TOTEN  =       -27.44950711 eV

  energy without entropy =      -27.44950711  energy(sigma->0) =      -27.44950711


--------------------------------------------------------------------------------------------------------




--------------------------------------- Iteration      1(   6)  ---------------------------------------


    POTLOK:  cpu time    4.8482: real time    4.8598
    SETDIJ:  cpu time    0.0072: real time    0.0072
     EDDAV:  cpu time    2.0174: real time    2.0222
       DOS:  cpu time    0.0001: real time    0.0001
    CHARGE:  cpu time    0.3301: real time    0.3309
    MIXING:  cpu time    0.0983: real time    0.0986
    --------------------------------------------
      LOOP:  cpu time    7.3013: real time    7.3187

 eigenvalue-minimisations  :    24
 total energy-change (2. order) : 0.2875995E+01  (-0.8849497E+00)
 number of electron       7.9999995 magnetization 
 augmentation part        0.1967678 magnetization 

 Broyden mixing:
  rms(total) = 0.44431E+00    rms(broyden)= 0.44419E+00
  rms(prec ) = 0.51614E+00
  weight for this iteration     100.00

 eigenvalues of (default mixing * dielectric matrix)
  average eigenvalue GAMMA=   1.1968
  1.1968

 Free energy of the ion-electron system (eV)
  ---------------------------------------------------
  alpha Z        PSCENC =         0.11133182
  Ewald energy   TEWEN  =       157.61477470
  -Hartree energ DENC   =      -291.68149390
  -exchange      EXHF   =         0.00000000
  -V(xc)+E(xc)   XCENC  =        23.19770183
  PAW double counting   =       238.12583262     -238.90516094
  entropy T*S    EENTRO =        -0.00000000
  eigenvalues    EBANDS =      -110.07825313
  atomic energy  EATOM  =       197.04175453
  Solvation  Ediel_sol  =         0.00000000
  ---------------------------------------------------
  free energy    TOTEN  =       -24.57351248 eV

  energy without entropy =      -24.57351248  energy(sigma->0) =      -24.57351248


--------------------------------------------------------------------------------------------------------




--------------------------------------- Iteration      1(   7)  ---------------------------------------


    POTLOK:  cpu time    4.4580: real time    4.4686
    SETDIJ:  cpu time    0.0077: real time    0.0078
     EDDAV:  cpu time    2.0275: real time    2.0323
       DOS:  cpu time    0.0001: real time    0.0001
    CHARGE:  cpu time    0.3248: real time    0.3256
    MIXING:  cpu time    0.1189: real time    0.1192
    --------------------------------------------
      LOOP:  cpu time    6.9371: real time    6.9536

 eigenvalue-minimisations  :    24
 total energy-change (2. order) : 0.4734276E+00  (-0.7047444E-01)
 number of electron       7.9999995 magnetization 
 augmentation part        0.1886067 magnetization 

 Broyden mixing:
  rms(total) = 0.22767E+00    rms(broyden)= 0.22763E+00
  rms(prec ) = 0.26112E+00
  weight for this iteration     100.00

 eigenvalues of (default mixing * dielectric matrix)
  average eigenvalue GAMMA=   1.6893
  1.2471  2.1315

 Free energy of the ion-electron system (eV)
  ---------------------------------------------------
  alpha Z        PSCENC =         0.11133182
  Ewald energy   TEWEN  =       157.61477470
  -Hartree energ DENC   =      -301.59174078
  -exchange      EXHF   =         0.00000000
  -V(xc)+E(xc)   XCENC  =        23.94035839
  PAW double counting   =       362.53065921     -363.33653702
  entropy T*S    EENTRO =        -0.00000000
  eigenvalues    EBANDS =      -100.41068568
  atomic energy  EATOM  =       197.04175453
  Solvation  Ediel_sol  =         0.00000000
  ---------------------------------------------------
  free energy    TOTEN  =       -24.10008483 eV

  energy without entropy =      -24.10008483  energy(sigma->0) =      -24.10008483


--------------------------------------------------------------------------------------------------------




--------------------------------------- Iteration      1(   8)  ---------------------------------------


    POTLOK:  cpu time    4.4651: real time    4.5592
    SETDIJ:  cpu time    0.0074: real time    0.0074
     EDDAV:  cpu time    1.3100: real time    1.3131
       DOS:  cpu time    0.0001: real time    0.0001
    CHARGE:  cpu time    0.3118: real time    0.3126
    MIXING:  cpu time    0.0932: real time    0.0935
    --------------------------------------------
      LOOP:  cpu time    6.1877: real time    6.2858

 eigenvalue-minimisations  :    16
 total energy-change (2. order) : 0.1626841E+00  (-0.1716980E-01)
 number of electron       7.9999995 magnetization 
 augmentation part        0.1858846 magnetization 

 Broyden mixing:
  rms(total) = 0.26628E-01    rms(broyden)= 0.26601E-01
  rms(prec ) = 0.46471E-01
  weight for this iteration     100.00

 eigenvalues of (default mixing * dielectric matrix)
  average eigenvalue GAMMA=   1.5625
  2.1837  1.0902  1.4137

 Free energy of the ion-electron system (eV)
  ---------------------------------------------------
  alpha Z        PSCENC =         0.11133182
  Ewald energy   TEWEN  =       157.61477470
  -Hartree energ DENC   =      -308.64174934
  -exchange      EXHF   =         0.00000000
  -V(xc)+E(xc)   XCENC  =        24.55940877
  PAW double counting   =       473.69679641     -474.48962139
  entropy T*S    EENTRO =        -0.00000000
  eigenvalues    EBANDS =       -93.83009623
  atomic energy  EATOM  =       197.04175453
  Solvation  Ediel_sol  =         0.00000000
  ---------------------------------------------------
  free energy    TOTEN  =       -23.93740074 eV

  energy without entropy =      -23.93740074  energy(sigma->0) =      -23.93740074


--------------------------------------------------------------------------------------------------------




--------------------------------------- Iteration      1(   9)  ---------------------------------------


    POTLOK:  cpu time    4.5740: real time    4.5849
    SETDIJ:  cpu time    0.0073: real time    0.0073
     EDDAV:  cpu time    1.5186: real time    1.5222
       DOS:  cpu time    0.0001: real time    0.0001
    CHARGE:  cpu time    0.4101: real time    0.4110
    MIXING:  cpu time    0.1210: real time    0.1212
    --------------------------------------------
      LOOP:  cpu time    6.6312: real time    6.6468

 eigenvalue-minimisations  :    16
 total energy-change (2. order) : 0.7106904E-02  (-0.3643731E-03)
 number of electron       7.9999995 magnetization 
 augmentation part        0.1855552 magnetization 

 Broyden mixing:
  rms(total) = 0.16681E-01    rms(broyden)= 0.16676E-01
  rms(prec ) = 0.30836E-01
  weight for this iteration     100.00

 eigenvalues of (default mixing * dielectric matrix)
  average eigenvalue GAMMA=   1.9142
  3.0424  2.4293  1.2310  0.9540

 Free energy of the ion-electron system (eV)
  ---------------------------------------------------
  alpha Z        PSCENC =         0.11133182
  Ewald energy   TEWEN  =       157.61477470
  -Hartree energ DENC   =      -310.00848515
  -exchange      EXHF   =         0.00000000
  -V(xc)+E(xc)   XCENC  =        24.63854439
  PAW double counting   =       475.19569687     -475.98507579
  entropy T*S    EENTRO =        -0.00000000
  eigenvalues    EBANDS =       -92.53883521
  atomic energy  EATOM  =       197.04175453
  Solvation  Ediel_sol  =         0.00000000
  ---------------------------------------------------
  free energy    TOTEN  =       -23.93029383 eV

  energy without entropy =      -23.93029383  energy(sigma->0) =      -23.93029383


--------------------------------------------------------------------------------------------------------




--------------------------------------- Iteration      1(  10)  ---------------------------------------


    POTLOK:  cpu time    4.7881: real time    4.7994
    SETDIJ:  cpu time    0.0075: real time    0.0075
     EDDAV:  cpu time    2.5047: real time    2.5106
       DOS:  cpu time    0.0001: real time    0.0001
    CHARGE:  cpu time    0.3095: real time    0.3102
    MIXING:  cpu time    0.0998: real time    0.1001
    --------------------------------------------
      LOOP:  cpu time    7.7097: real time    7.7279

 eigenvalue-minimisations  :    32
 total energy-change (2. order) : 0.9784884E-02  (-0.6473365E-03)
 number of electron       7.9999995 magnetization 
 augmentation part        0.1851981 magnetization 

 Broyden mixing:
  rms(total) = 0.61202E-02    rms(broyden)= 0.61186E-02
  rms(prec ) = 0.13253E-01
  weight for this iteration     100.00

 eigenvalues of (default mixing * dielectric matrix)
  average eigenvalue GAMMA=   1.8143
  3.0935  2.3476  0.9934  1.3185  1.3185

 Free energy of the ion-electron system (eV)
  ---------------------------------------------------
  alpha Z        PSCENC =         0.11133182
  Ewald energy   TEWEN  =       157.61477470
  -Hartree energ DENC   =      -311.79066678
  -exchange      EXHF   =         0.00000000
  -V(xc)+E(xc)   XCENC  =        24.71516168
  PAW double counting   =       466.00275000     -466.78919612
  entropy T*S    EENTRO =        -0.00000000
  eigenvalues    EBANDS =       -90.82641877
  atomic energy  EATOM  =       197.04175453
  Solvation  Ediel_sol  =         0.00000000
  ---------------------------------------------------
  free energy    TOTEN  =       -23.92050895 eV

  energy without entropy =      -23.92050895  energy(sigma->0) =      -23.92050895


--------------------------------------------------------------------------------------------------------




--------------------------------------- Iteration      1(  11)  ---------------------------------------


    POTLOK:  cpu time    4.3664: real time    4.3767
    SETDIJ:  cpu time    0.0075: real time    0.0075
     EDDAV:  cpu time    2.7878: real time    2.7944
       DOS:  cpu time    0.0001: real time    0.0001
    CHARGE:  cpu time    0.3893: real time    0.3902
    MIXING:  cpu time    0.1111: real time    0.1114
    --------------------------------------------
      LOOP:  cpu time    7.6622: real time    7.6803

 eigenvalue-minimisations  :    32
 total energy-change (2. order) :-0.5317698E-02  (-0.1313778E-03)
 number of electron       7.9999995 magnetization 
 augmentation part        0.1849996 magnetization 

 Broyden mixing:
  rms(total) = 0.39631E-02    rms(broyden)= 0.39625E-02
  rms(prec ) = 0.80097E-02
  weight for this iteration     100.00

 eigenvalues of (default mixing * dielectric matrix)
  average eigenvalue GAMMA=   2.1329
  4.4275  2.8999  2.2610  1.2451  0.9820  0.9820

 Free energy of the ion-electron system (eV)
  ---------------------------------------------------
  alpha Z        PSCENC =         0.11133182
  Ewald energy   TEWEN  =       157.61477470
  -Hartree energ DENC   =      -312.40777088
  -exchange      EXHF   =         0.00000000
  -V(xc)+E(xc)   XCENC  =        24.73662255
  PAW double counting   =       467.21396468     -468.00085056
  entropy T*S    EENTRO =        -0.00000000
  eigenvalues    EBANDS =       -90.23565347
  atomic energy  EATOM  =       197.04175453
  Solvation  Ediel_sol  =         0.00000000
  ---------------------------------------------------
  free energy    TOTEN  =       -23.92582665 eV

  energy without entropy =      -23.92582665  energy(sigma->0) =      -23.92582665


--------------------------------------------------------------------------------------------------------




--------------------------------------- Iteration      1(  12)  ---------------------------------------


    POTLOK:  cpu time    4.5969: real time    4.6078
    SETDIJ:  cpu time    0.0071: real time    0.0071
     EDDAV:  cpu time    1.6444: real time    1.6483
       DOS:  cpu time    0.0001: real time    0.0001
    CHARGE:  cpu time    0.3743: real time    0.3752
    MIXING:  cpu time    0.1271: real time    0.1274
    --------------------------------------------
      LOOP:  cpu time    6.7499: real time    6.7659

 eigenvalue-minimisations  :    16
 total energy-change (2. order) :-0.4224701E-02  (-0.5155117E-04)
 number of electron       7.9999995 magnetization 
 augmentation part        0.1850111 magnetization 

 Broyden mixing:
  rms(total) = 0.21258E-02    rms(broyden)= 0.21258E-02
  rms(prec ) = 0.41713E-02
  weight for this iteration     100.00

 eigenvalues of (default mixing * dielectric matrix)
  average eigenvalue GAMMA=   2.3667
  5.2820  3.4218  2.5286  2.0850  1.2485  0.9916  1.0093

 Free energy of the ion-electron system (eV)
  ---------------------------------------------------
  alpha Z        PSCENC =         0.11133182
  Ewald energy   TEWEN  =       157.61477470
  -Hartree energ DENC   =      -312.58920560
  -exchange      EXHF   =         0.00000000
  -V(xc)+E(xc)   XCENC  =        24.72909382
  PAW double counting   =       464.61935265     -465.40630590
  entropy T*S    EENTRO =        -0.00000000
  eigenvalues    EBANDS =       -90.05084737
  atomic energy  EATOM  =       197.04175453
  Solvation  Ediel_sol  =         0.00000000
  ---------------------------------------------------
  free energy    TOTEN  =       -23.93005135 eV

  energy without entropy =      -23.93005135  energy(sigma->0) =      -23.93005135


--------------------------------------------------------------------------------------------------------




--------------------------------------- Iteration      1(  13)  ---------------------------------------


    POTLOK:  cpu time    4.6884: real time    4.6997
    SETDIJ:  cpu time    0.0072: real time    0.0072
     EDDAV:  cpu time    1.5135: real time    1.5171
       DOS:  cpu time    0.0001: real time    0.0001
    CHARGE:  cpu time    0.3871: real time    0.3881
    MIXING:  cpu time    0.1267: real time    0.1270
    --------------------------------------------
      LOOP:  cpu time    6.7231: real time    6.7393

 eigenvalue-minimisations  :    16
 total energy-change (2. order) :-0.4099665E-02  (-0.9879891E-04)
 number of electron       7.9999995 magnetization 
 augmentation part        0.1849764 magnetization 

 Broyden mixing:
  rms(total) = 0.13679E-02    rms(broyden)= 0.13678E-02
  rms(prec ) = 0.20404E-02
  weight for this iteration     100.00

 eigenvalues of (default mixing * dielectric matrix)
  average eigenvalue GAMMA=   2.3337
  5.9037  3.6565  2.4418  2.3770  1.2424  1.0902  0.9788  0.9788

 Free energy of the ion-electron system (eV)
  ---------------------------------------------------
  alpha Z        PSCENC =         0.11133182
  Ewald energy   TEWEN  =       157.61477470
  -Hartree energ DENC   =      -312.67051625
  -exchange      EXHF   =         0.00000000
  -V(xc)+E(xc)   XCENC  =        24.72609169
  PAW double counting   =       466.46212970     -467.24879607
  entropy T*S    EENTRO =        -0.00000000
  eigenvalues    EBANDS =       -89.97092111
  atomic energy  EATOM  =       197.04175453
  Solvation  Ediel_sol  =         0.00000000
  ---------------------------------------------------
  free energy    TOTEN  =       -23.93415101 eV

  energy without entropy =      -23.93415101  energy(sigma->0) =      -23.93415101


--------------------------------------------------------------------------------------------------------




--------------------------------------- Iteration      1(  14)  ---------------------------------------


    POTLOK:  cpu time    4.3515: real time    4.3618
    SETDIJ:  cpu time    0.0072: real time    0.0072
     EDDAV:  cpu time    2.6096: real time    2.6158
       DOS:  cpu time    0.0001: real time    0.0001
    CHARGE:  cpu time    0.2996: real time    0.3004
    MIXING:  cpu time    0.1078: real time    0.1080
    --------------------------------------------
      LOOP:  cpu time    7.3758: real time    7.3934

 eigenvalue-minimisations  :    32
 total energy-change (2. order) :-0.6582696E-03  (-0.6354957E-05)
 number of electron       7.9999995 magnetization 
 augmentation part        0.1849689 magnetization 

 Broyden mixing:
  rms(total) = 0.61030E-03    rms(broyden)= 0.61026E-03
  rms(prec ) = 0.11359E-02
  weight for this iteration     100.00

 eigenvalues of (default mixing * dielectric matrix)
  average eigenvalue GAMMA=   2.5295
  6.9411  4.2702  2.7563  2.3138  2.0850  0.9880  0.9880  1.2604  1.1629

 Free energy of the ion-electron system (eV)
  ---------------------------------------------------
  alpha Z        PSCENC =         0.11133182
  Ewald energy   TEWEN  =       157.61477470
  -Hartree energ DENC   =      -312.62587904
  -exchange      EXHF   =         0.00000000
  -V(xc)+E(xc)   XCENC  =        24.72079180
  PAW double counting   =       465.60199061     -466.38859747
  entropy T*S    EENTRO =        -0.00000000
  eigenvalues    EBANDS =       -90.01097624
  atomic energy  EATOM  =       197.04175453
  Solvation  Ediel_sol  =         0.00000000
  ---------------------------------------------------
  free energy    TOTEN  =       -23.93480928 eV

  energy without entropy =      -23.93480928  energy(sigma->0) =      -23.93480928


--------------------------------------------------------------------------------------------------------




--------------------------------------- Iteration      1(  15)  ---------------------------------------


    POTLOK:  cpu time    3.9156: real time    3.9249
    SETDIJ:  cpu time    0.0066: real time    0.0066
     EDDAV:  cpu time    1.8944: real time    1.8989
       DOS:  cpu time    0.0001: real time    0.0001
    CHARGE:  cpu time    0.3323: real time    0.3331
    MIXING:  cpu time    0.1229: real time    0.1232
    --------------------------------------------
      LOOP:  cpu time    6.2720: real time    6.2869

 eigenvalue-minimisations  :    24
 total energy-change (2. order) :-0.4561605E-03  (-0.5207734E-05)
 number of electron       7.9999995 magnetization 
 augmentation part        0.1849791 magnetization 

 Broyden mixing:
  rms(total) = 0.37447E-03    rms(broyden)= 0.37433E-03
  rms(prec ) = 0.66472E-03
  weight for this iteration     100.00

 eigenvalues of (default mixing * dielectric matrix)
  average eigenvalue GAMMA=   2.4763
  7.1674  4.5584  2.8449  2.3712  1.9844  1.4477  1.3005  0.9834  1.0192  1.0855

 Free energy of the ion-electron system (eV)
  ---------------------------------------------------
  alpha Z        PSCENC =         0.11133182
  Ewald energy   TEWEN  =       157.61477470
  -Hartree energ DENC   =      -312.63318659
  -exchange      EXHF   =         0.00000000
  -V(xc)+E(xc)   XCENC  =        24.72060523
  PAW double counting   =       465.53906426     -466.32560565
  entropy T*S    EENTRO =        -0.00000000
  eigenvalues    EBANDS =       -90.00400373
  atomic energy  EATOM  =       197.04175453
  Solvation  Ediel_sol  =         0.00000000
  ---------------------------------------------------
  free energy    TOTEN  =       -23.93526544 eV

  energy without entropy =      -23.93526544  energy(sigma->0) =      -23.93526544


--------------------------------------------------------------------------------------------------------




--------------------------------------- Iteration      1(  16)  ---------------------------------------


    POTLOK:  cpu time    4.0719: real time    4.0816
    SETDIJ:  cpu time    0.0068: real time    0.0068
     EDDAV:  cpu time    2.3705: real time    2.3761
       DOS:  cpu time    0.0001: real time    0.0001
    CHARGE:  cpu time    0.2955: real time    0.2962
    MIXING:  cpu time    0.1351: real time    0.1354
    --------------------------------------------
      LOOP:  cpu time    6.8798: real time    6.8962

 eigenvalue-minimisations  :    32
 total energy-change (2. order) :-0.1065007E-03  (-0.8613880E-06)
 number of electron       7.9999995 magnetization 
 augmentation part        0.1849526 magnetization 

 Broyden mixing:
  rms(total) = 0.29317E-03    rms(broyden)= 0.29307E-03
  rms(prec ) = 0.48050E-03
  weight for this iteration     100.00

 eigenvalues of (default mixing * dielectric matrix)
  average eigenvalue GAMMA=   2.5499
  7.8424  4.8323  3.2787  2.6795  2.1393  1.9257  1.2337  1.2337  0.9856  0.9856
  0.9120

 Free energy of the ion-electron system (eV)
  ---------------------------------------------------
  alpha Z        PSCENC =         0.11133182
  Ewald energy   TEWEN  =       157.61477470
  -Hartree energ DENC   =      -312.65450336
  -exchange      EXHF   =         0.00000000
  -V(xc)+E(xc)   XCENC  =        24.72141807
  PAW double counting   =       465.56798913     -466.35469106
  entropy T*S    EENTRO =        -0.00000000
  eigenvalues    EBANDS =       -89.98344576
  atomic energy  EATOM  =       197.04175453
  Solvation  Ediel_sol  =         0.00000000
  ---------------------------------------------------
  free energy    TOTEN  =       -23.93537194 eV

  energy without entropy =      -23.93537194  energy(sigma->0) =      -23.93537194


--------------------------------------------------------------------------------------------------------




--------------------------------------- Iteration      1(  17)  ---------------------------------------


    POTLOK:  cpu time    4.0403: real time    4.0499
    SETDIJ:  cpu time    0.0071: real time    0.0071
     EDDAV:  cpu time    1.3151: real time    1.3183
       DOS:  cpu time    0.0001: real time    0.0001
    CHARGE:  cpu time    0.3001: real time    0.3009
    MIXING:  cpu time    0.1243: real time    0.1246
    --------------------------------------------
      LOOP:  cpu time    5.7871: real time    5.8008

 eigenvalue-minimisations  :    16
 total energy-change (2. order) :-0.8383367E-04  (-0.4029091E-06)
 number of electron       7.9999995 magnetization 
 augmentation part        0.1849613 magnetization 

 Broyden mixing:
  rms(total) = 0.14947E-03    rms(broyden)= 0.14945E-03
  rms(prec ) = 0.22702E-03
  weight for this iteration     100.00

 eigenvalues of (default mixing * dielectric matrix)
  average eigenvalue GAMMA=   2.5705
  8.0437  5.2348  3.8278  2.7191  2.3848  1.7568  1.6138  1.2518  1.0959  1.0130
  0.9715  0.9328

 Free energy of the ion-electron system (eV)
  ---------------------------------------------------
  alpha Z        PSCENC =         0.11133182
  Ewald energy   TEWEN  =       157.61477470
  -Hartree energ DENC   =      -312.65319181
  -exchange      EXHF   =         0.00000000
  -V(xc)+E(xc)   XCENC  =        24.72103053
  PAW double counting   =       465.44831841     -466.23496821
  entropy T*S    EENTRO =        -0.00000000
  eigenvalues    EBANDS =       -89.98450574
  atomic energy  EATOM  =       197.04175453
  Solvation  Ediel_sol  =         0.00000000
  ---------------------------------------------------
  free energy    TOTEN  =       -23.93545578 eV

  energy without entropy =      -23.93545578  energy(sigma->0) =      -23.93545578


--------------------------------------------------------------------------------------------------------




--------------------------------------- Iteration      1(  18)  ---------------------------------------


    POTLOK:  cpu time    3.9491: real time    3.9585
    SETDIJ:  cpu time    0.0070: real time    0.0071
     EDDAV:  cpu time    1.3330: real time    1.3362
       DOS:  cpu time    0.0001: real time    0.0001
    CHARGE:  cpu time    0.3633: real time    0.3641
    MIXING:  cpu time    0.1377: real time    0.1380
    --------------------------------------------
      LOOP:  cpu time    5.7902: real time    5.8040

 eigenvalue-minimisations  :    16
 total energy-change (2. order) :-0.2488287E-04  (-0.7621136E-07)
 number of electron       7.9999995 magnetization 
 augmentation part        0.1849636 magnetization 

 Broyden mixing:
  rms(total) = 0.14035E-03    rms(broyden)= 0.14032E-03
  rms(prec ) = 0.18123E-03
  weight for this iteration     100.00

 eigenvalues of (default mixing * dielectric matrix)
  average eigenvalue GAMMA=   2.6989
  8.4933  6.0167  4.3324  3.0650  2.6541  2.2609  1.8091  1.2783  1.2783  0.9664
  0.9664  0.9827  0.9827

 Free energy of the ion-electron system (eV)
  ---------------------------------------------------
  alpha Z        PSCENC =         0.11133182
  Ewald energy   TEWEN  =       157.61477470
  -Hartree energ DENC   =      -312.65966059
  -exchange      EXHF   =         0.00000000
  -V(xc)+E(xc)   XCENC  =        24.72143928
  PAW double counting   =       465.55876175     -466.34537561
  entropy T*S    EENTRO =        -0.00000000
  eigenvalues    EBANDS =       -89.97850654
  atomic energy  EATOM  =       197.04175453
  Solvation  Ediel_sol  =         0.00000000
  ---------------------------------------------------
  free energy    TOTEN  =       -23.93548066 eV

  energy without entropy =      -23.93548066  energy(sigma->0) =      -23.93548066


--------------------------------------------------------------------------------------------------------




--------------------------------------- Iteration      1(  19)  ---------------------------------------


    POTLOK:  cpu time    4.0737: real time    4.0833
    SETDIJ:  cpu time    0.0065: real time    0.0065
     EDDAV:  cpu time    1.4294: real time    1.4328
       DOS:  cpu time    0.0001: real time    0.0001
    CHARGE:  cpu time    0.3613: real time    0.3621
    MIXING:  cpu time    0.1511: real time    0.1515
    --------------------------------------------
      LOOP:  cpu time    6.0220: real time    6.0363

 eigenvalue-minimisations  :    16
 total energy-change (2. order) :-0.2050117E-04  (-0.5493901E-07)
 number of electron       7.9999995 magnetization 
 augmentation part        0.1849625 magnetization 

 Broyden mixing:
  rms(total) = 0.46078E-04    rms(broyden)= 0.46067E-04
  rms(prec ) = 0.65843E-04
  weight for this iteration     100.00

 eigenvalues of (default mixing * dielectric matrix)
  average eigenvalue GAMMA=   2.7498
  8.9388  6.5239  4.5097  3.4054  2.5615  2.4236  1.9475  1.7889  1.2375  1.2375
  0.9952  0.9952  0.9663  0.9663

 Free energy of the ion-electron system (eV)
  ---------------------------------------------------
  alpha Z        PSCENC =         0.11133182
  Ewald energy   TEWEN  =       157.61477470
  -Hartree energ DENC   =      -312.65946266
  -exchange      EXHF   =         0.00000000
  -V(xc)+E(xc)   XCENC  =        24.72121558
  PAW double counting   =       465.56620162     -466.35283805
  entropy T*S    EENTRO =        -0.00000000
  eigenvalues    EBANDS =       -89.97847870
  atomic energy  EATOM  =       197.04175453
  Solvation  Ediel_sol  =         0.00000000
  ---------------------------------------------------
  free energy    TOTEN  =       -23.93550116 eV

  energy without entropy =      -23.93550116  energy(sigma->0) =      -23.93550116


--------------------------------------------------------------------------------------------------------




--------------------------------------- Iteration      1(  20)  ---------------------------------------


    POTLOK:  cpu time    4.3008: real time    4.3110
    SETDIJ:  cpu time    0.0066: real time    0.0066
     EDDAV:  cpu time    1.4004: real time    1.4037
       DOS:  cpu time    0.0001: real time    0.0001
    CHARGE:  cpu time    0.3237: real time    0.3245
    MIXING:  cpu time    0.1652: real time    0.1656
    --------------------------------------------
      LOOP:  cpu time    6.1968: real time    6.2115

 eigenvalue-minimisations  :    16
 total energy-change (2. order) :-0.5624620E-05  (-0.1276186E-07)
 number of electron       7.9999995 magnetization 
 augmentation part        0.1849642 magnetization 

 Broyden mixing:
  rms(total) = 0.24556E-04    rms(broyden)= 0.24553E-04
  rms(prec ) = 0.35956E-04
  weight for this iteration     100.00

 eigenvalues of (default mixing * dielectric matrix)
  average eigenvalue GAMMA=   2.7728
  9.2827  6.9138  4.7611  3.7413  2.8076  2.4504  2.2346  1.8823  1.2574  1.2574
  0.9608  0.9608  1.0164  1.0328  1.0328

 Free energy of the ion-electron system (eV)
  ---------------------------------------------------
  alpha Z        PSCENC =         0.11133182
  Ewald energy   TEWEN  =       157.61477470
  -Hartree energ DENC   =      -312.65727972
  -exchange      EXHF   =         0.00000000
  -V(xc)+E(xc)   XCENC  =        24.72108706
  PAW double counting   =       465.53605132     -466.32268050
  entropy T*S    EENTRO =        -0.00000000
  eigenvalues    EBANDS =       -89.98054599
  atomic energy  EATOM  =       197.04175453
  Solvation  Ediel_sol  =         0.00000000
  ---------------------------------------------------
  free energy    TOTEN  =       -23.93550678 eV

  energy without entropy =      -23.93550678  energy(sigma->0) =      -23.93550678


--------------------------------------------------------------------------------------------------------




--------------------------------------- Iteration      1(  21)  ---------------------------------------


    POTLOK:  cpu time    4.3385: real time    4.3488
    SETDIJ:  cpu time    0.0066: real time    0.0066
     EDDAV:  cpu time    2.5642: real time    2.5703
       DOS:  cpu time    0.0001: real time    0.0001
    CHARGE:  cpu time    0.3323: real time    0.3331
    MIXING:  cpu time    0.1637: real time    0.1641
    --------------------------------------------
      LOOP:  cpu time    7.4054: real time    7.4230

 eigenvalue-minimisations  :    32
 total energy-change (2. order) :-0.1517106E-05  (-0.3213927E-08)
 number of electron       7.9999995 magnetization 
 augmentation part        0.1849633 magnetization 

 Broyden mixing:
  rms(total) = 0.82568E-05    rms(broyden)= 0.82548E-05
  rms(prec ) = 0.12820E-04
  weight for this iteration     100.00

 eigenvalues of (default mixing * dielectric matrix)
  average eigenvalue GAMMA=   2.7729
  9.4931  7.1018  4.9866  3.8701  3.0441  2.6024  2.2871  1.8321  1.8321  1.2214
  1.2214  0.9770  0.9770  0.9914  0.9641  0.9641

 Free energy of the ion-electron system (eV)
  ---------------------------------------------------
  alpha Z        PSCENC =         0.11133182
  Ewald energy   TEWEN  =       157.61477470
  -Hartree energ DENC   =      -312.65859298
  -exchange      EXHF   =         0.00000000
  -V(xc)+E(xc)   XCENC  =        24.72117541
  PAW double counting   =       465.53961215     -466.32624703
  entropy T*S    EENTRO =        -0.00000000
  eigenvalues    EBANDS =       -89.97931689
  atomic energy  EATOM  =       197.04175453
  Solvation  Ediel_sol  =         0.00000000
  ---------------------------------------------------
  free energy    TOTEN  =       -23.93550830 eV

  energy without entropy =      -23.93550830  energy(sigma->0) =      -23.93550830


--------------------------------------------------------------------------------------------------------




--------------------------------------- Iteration      1(  22)  ---------------------------------------


    POTLOK:  cpu time    4.4003: real time    4.4107
    SETDIJ:  cpu time    0.0071: real time    0.0071
     EDDAV:  cpu time    2.4689: real time    2.4747
       DOS:  cpu time    0.0001: real time    0.0001
    CHARGE:  cpu time    0.3078: real time    0.3085
    MIXING:  cpu time    0.1706: real time    0.1710
    --------------------------------------------
      LOOP:  cpu time    7.3547: real time    7.3722

 eigenvalue-minimisations  :    32
 total energy-change (2. order) :-0.1253812E-05  (-0.1224560E-08)
 number of electron       7.9999995 magnetization 
 augmentation part        0.1849629 magnetization 

 Broyden mixing:
  rms(total) = 0.87281E-05    rms(broyden)= 0.87261E-05
  rms(prec ) = 0.10927E-04
  weight for this iteration     100.00

 eigenvalues of (default mixing * dielectric matrix)
  average eigenvalue GAMMA=   2.8166
  9.7146  7.3723  5.2291  4.4306  3.2276  2.8124  2.4075  2.2568  1.8427  1.3201
  1.2385  1.1127  1.0146  1.0146  0.9671  0.9671  0.9546

 Free energy of the ion-electron system (eV)
  ---------------------------------------------------
  alpha Z        PSCENC =         0.11133182
  Ewald energy   TEWEN  =       157.61477470
  -Hartree energ DENC   =      -312.65894331
  -exchange      EXHF   =         0.00000000
  -V(xc)+E(xc)   XCENC  =        24.72119071
  PAW double counting   =       465.53840041     -466.32503657
  entropy T*S    EENTRO =        -0.00000000
  eigenvalues    EBANDS =       -89.97898184
  atomic energy  EATOM  =       197.04175453
  Solvation  Ediel_sol  =         0.00000000
  ---------------------------------------------------
  free energy    TOTEN  =       -23.93550956 eV

  energy without entropy =      -23.93550956  energy(sigma->0) =      -23.93550956


--------------------------------------------------------------------------------------------------------




--------------------------------------- Iteration      1(  23)  ---------------------------------------


    POTLOK:  cpu time    4.4402: real time    4.4508
    SETDIJ:  cpu time    0.0072: real time    0.0072
     EDDAV:  cpu time    2.3961: real time    2.4017
       DOS:  cpu time    0.0001: real time    0.0001
    --------------------------------------------
      LOOP:  cpu time    6.8436: real time    6.8599

 eigenvalue-minimisations  :    32
 total energy-change (2. order) :-0.5286985E-06  (-0.5342216E-09)
 number of electron       7.9999995 magnetization 
 augmentation part        0.1849629 magnetization 

 Free energy of the ion-electron system (eV)
  ---------------------------------------------------
  alpha Z        PSCENC =         0.11133182
  Ewald energy   TEWEN  =       157.61477470
  -Hartree energ DENC   =      -312.65860895
  -exchange      EXHF   =         0.00000000
  -V(xc)+E(xc)   XCENC  =        24.72117303
  PAW double counting   =       465.54224841     -466.32888106
  entropy T*S    EENTRO =        -0.00000000
  eigenvalues    EBANDS =       -89.97930256
  atomic energy  EATOM  =       197.04175453
  Solvation  Ediel_sol  =         0.00000000
  ---------------------------------------------------
  free energy    TOTEN  =       -23.93551008 eV

  energy without entropy =      -23.93551008  energy(sigma->0) =      -23.93551008


--------------------------------------------------------------------------------------------------------




 average (electrostatic) potential at core
  the test charge radii are     0.5201  0.6991
  (the norm of the test charge is              1.0000)
       1 -41.8860       2 -41.4878       3 -41.3912       4 -41.5319       5 -58.0490



 E-fermi :  -8.6695     XC(G=0):  -0.3418     alpha+bet : -0.0968


 k-point     1 :       0.0000    0.0000    0.0000
  band No.  band energies     occupation 
      1     -16.9587      2.00000
      2      -9.7889      2.00000
      3      -9.2822      2.00000
      4      -8.9600      2.00000
      5      -0.4490      0.00000
      6       0.4105      0.00000
      7       0.6208      0.00000
      8       0.6486      0.00000


--------------------------------------------------------------------------------------------------------


 soft charge-density along one line, spin component           1
         0         1         2         3         4         5         6         7         8         9
 total charge-density along one line

 pseudopotential strength for first ion, spin component:           1
 -2.345  -4.041  -0.000   0.002   0.000
 -4.041  -6.879  -0.001   0.006   0.001
 -0.000  -0.001  -0.336  -0.001  -0.000
  0.002   0.006  -0.001  -0.331   0.001
  0.000   0.001  -0.000   0.001  -0.336
 total augmentation occupancy for first ion, spin component:           1
  3.683  -0.656   0.080  -0.465  -0.077
 -0.656   0.133  -0.013   0.085   0.013
  0.080  -0.013   0.013  -0.008  -0.002
 -0.465   0.085  -0.008   0.060   0.008
 -0.077   0.013  -0.002   0.008   0.012


------------------------ aborting loop because EDIFF is reached ----------------------------------------


    CHARGE:  cpu time    0.3350: real time    0.3357
    FORLOC:  cpu time    0.2671: real time    0.2678
    FORNL :  cpu time    0.4087: real time    0.4097
    STRESS:  cpu time    1.5324: real time    1.5360
    FORCOR:  cpu time    4.4721: real time    4.4827
    FORHAR:  cpu time    1.4721: real time    1.4756
    MIXING:  cpu time    0.1736: real time    0.1741
    OFIELD:  cpu time    0.0000: real time    0.0000

  FORCE on cell =-STRESS in cart. coord.  units (eV):
  Direction    XX          YY          ZZ          XY          YZ          ZX
  --------------------------------------------------------------------------------------
  Alpha Z     0.11133     0.11133     0.11133
  Ewald      58.12466    50.20952    49.28058    -5.29071    -6.19608     3.04160
  Hartree   106.58706   104.04555   102.02613    -1.37395    -1.58395     0.72028
  E(xc)     -27.15626   -27.18863   -27.21873    -0.02988    -0.03198     0.01082
  Local    -222.74025  -213.69560  -209.74051     5.71326     6.59359    -3.06385
  n-local   -15.79255   -15.77566   -16.02937    -0.00256     0.00496    -0.02164
  augment     0.11336     0.12373     0.10992     0.00659     0.00902    -0.00596
  Kinetic    99.47455   100.99787   102.68313     1.40519     1.56041    -0.61097
  Fock        0.00000     0.00000     0.00000     0.00000     0.00000     0.00000
  -------------------------------------------------------------------------------------
  Total      -1.27810    -1.17189     1.22250     0.42795     0.35596     0.07029
  in kB      -0.94109    -0.86288     0.90015     0.31511     0.26210     0.05175
  external pressure =       -0.30 kB  Pullay stress =        0.00 kB


 VOLUME and BASIS-vectors are now :
 -----------------------------------------------------------------------------
  energy-cutoff  :      400.00
  volume of cell :     2175.93
      direct lattice vectors                 reciprocal lattice vectors
    12.868677200  0.000000000  0.000000000     0.077708065 -0.001121393 -0.001130637
     0.187355900 12.983020800  0.000000000     0.000000000  0.077023677 -0.000572415
     0.190889800  0.096788300 13.023756000     0.000000000  0.000000000  0.076782765

  length of vectors
    12.868677200 12.984372581 13.025514471     0.077724380  0.077025804  0.076782765


 FORCES acting on ions
    electron-ion (+dipol)            ewald-force                    non-local-force                 convergence-correction
 -----------------------------------------------------------------------------------------------
   -.842E+01 0.884E+01 -.534E+02   0.938E+01 -.974E+01 0.608E+02   -.102E+01 0.107E+01 -.591E+01   0.222E-05 -.455E-05 0.172E-04
   -.366E+02 0.299E+02 0.231E+02   0.397E+02 -.327E+02 -.256E+02   -.377E+01 0.300E+01 0.220E+01   0.922E-05 -.930E-05 -.809E-05
   -.678E+01 -.498E+02 0.134E+02   0.755E+01 0.541E+02 -.144E+02   -.630E+00 -.493E+01 0.135E+01   0.178E-05 0.128E-04 -.522E-05
   0.498E+02 0.115E+02 0.128E+02   -.544E+02 -.129E+02 -.141E+02   0.510E+01 0.108E+01 0.127E+01   -.109E-04 -.400E-05 -.405E-05
   0.201E+01 -.860E+00 0.567E+01   -.222E+01 0.122E+01 -.672E+01   0.292E+00 0.256E+00 -.413E+00   -.551E-05 -.779E-05 -.263E-04
 -----------------------------------------------------------------------------------------------
   0.196E-01 -.478E+00 0.150E+01   0.000E+00 0.178E-14 0.711E-14   -.187E-01 0.478E+00 -.150E+01   -.318E-05 -.129E-04 -.265E-04


 POSITION                                       TOTAL-FORCE (eV/Angst)
 -----------------------------------------------------------------------------------
      6.81588      5.93339      6.83269        -0.056798      0.174807      1.496951
      7.42519      5.47316      5.31894        -0.595970      0.205873     -0.353070
      6.79751      7.17816      5.51564         0.142045     -0.666705      0.355534
      5.60382      5.86364      5.53430         0.430842     -0.328912     -0.043832
      6.64978      6.10445      5.80124         0.079881      0.614936     -1.455582
 -----------------------------------------------------------------------------------
    total drift:                                0.000865     -0.000191      0.000339


--------------------------------------------------------------------------------------------------------



  FREE ENERGIE OF THE ION-ELECTRON SYSTEM (eV)
  ---------------------------------------------------
  free  energy   TOTEN  =       -23.93551008 eV

  energy  without entropy=      -23.93551008  energy(sigma->0) =      -23.93551008



--------------------------------------------------------------------------------------------------------


    POTLOK:  cpu time    4.4464: real time    4.4569


--------------------------------------------------------------------------------------------------------


     LOOP+:  cpu time  149.7153: real time  150.1650
    4ORBIT:  cpu time    0.0000: real time    0.0000

 total amount of memory used by VASP MPI-rank0   558118. kBytes
=======================================================================

   base      :      30000. kBytes
   nonlr-proj:       1231. kBytes
   fftplans  :     187240. kBytes
   grid      :     334575. kBytes
   one-center:         15. kBytes
   wavefun   :       5057. kBytes

  
  
 General timing and accounting informations for this job:
 ========================================================
  
                  Total CPU time used (sec):      154.204
                            User time (sec):      148.783
                          System time (sec):        5.420
                         Elapsed time (sec):      154.669
  
                   Maximum memory used (kb):      762856.
                   Average memory used (kb):           0.
  
                          Minor page faults:       383887
                          Major page faults:            0
                 Voluntary context switches:          141
