-2.980303095265132470e+03
-2.980303120408453651e+03
-2.980276534639188412e+03
-2.980303295704203720e+03
-2.980235584713831940e+03
-2.980302955289761485e+03
-2.980287461153644472e+03
-2.980297042935815170e+03
-2.980301460677160776e+03
-2.980292168641830813e+03
-2.980286458468483943e+03
-2.980301611156126910e+03
-2.980303367515051832e+03
-2.980302699040137213e+03
-2.980295975079384789e+03
-2.980303293663349450e+03
-2.980208543425961579e+03
-2.980292616024231847e+03
-2.980302463226264081e+03
-2.980234810304990788e+03
-2.980303085169708083e+03
-2.980299949955418924e+03
-2.980288817423557703e+03
-2.980302109342186213e+03
-2.980295390524385311e+03
-2.980151844829180391e+03
-2.980297833372163041e+03
-2.980294187917170348e+03
-2.980279979382996316e+03
-2.980303079700219314e+03
-2.980256494296771507e+03
-2.980303364222474102e+03
-2.980258708160733477e+03
-2.980303053141906730e+03
-2.980301924440816492e+03
-2.980302288801278337e+03
-2.980303307541156300e+03
-2.980021732062007686e+03
-2.980280404207157972e+03
-2.980288448518794212e+03
-2.980297219537711499e+03
-2.980279259859521062e+03
-2.980273767731012413e+03
-2.980298009076083872e+03
-2.980255111359699640e+03
-2.980251570804601215e+03
-2.980293350350701530e+03
-2.980288940582291616e+03
-2.980302952296508920e+03
-2.980302656780854250e+03
-2.980226903220375334e+03
-2.980302243249417643e+03
-2.980264710203408868e+03
-2.980286563885394116e+03
-2.980303219185785565e+03
-2.980300126829429701e+03
-2.980286024474085025e+03
-2.980286781141102438e+03
-2.980183743159016558e+03
-2.980302161941795475e+03
-2.980215937875271266e+03
-2.980163724912245016e+03
-2.980301199175738930e+03
-2.980295742748568500e+03
-2.980302253072728490e+03
-2.980297822814145093e+03
-2.980303350290243998e+03
