-3.690587493809652231e-02 -2.444233820497356824e-01 1.574709799403049282e-01 3.690587493809652231e-02 2.444233820497356824e-01 -1.574709799403049282e-01
-9.346937783104292824e-03 2.750258885345167048e-01 -4.439179667716509903e-02 9.346937783104292824e-03 -2.750258885345167048e-01 4.439179667716509903e-02
-1.699203293250111768e+00 -2.474245641693037623e+00 -3.052361989106557316e-01 1.699203293250111768e+00 2.474245641693037623e+00 3.052361989106557316e-01
5.207440782433062770e-02 -6.768491338052375073e-02 -1.224309032985194112e-01 -5.207440782433062770e-02 6.768491338052375073e-02 1.224309032985194112e-01
5.340320546998637008e-01 -4.885694808850187698e+00 9.220357221804569015e-02 -5.340320546998637008e-01 4.885694808850187698e+00 -9.220357221804569015e-02
6.948026344439220403e-02 2.150159758351719852e-01 2.758639139681783869e-01 -6.948026344439220403e-02 -2.150159758351719852e-01 -2.758639139681783869e-01
-2.033703585073274756e+00 1.063657701015613632e+00 1.530723877104474828e-01 2.033703585073274756e+00 -1.063657701015613632e+00 -1.530723877104474828e-01
4.493907145690214100e-01 9.733354565582567064e-01 -9.503372454118746981e-01 -4.493907145690214100e-01 -9.733354565582567064e-01 9.503372454118746981e-01
3.929088184971599729e-01 -5.771106346178183077e-01 3.462805218392470130e-01 -3.929088184971599729e-01 5.771106346178183077e-01 -3.462805218392470130e-01
-2.685295844840300261e-01 -1.288386534066051192e+00 -1.397576820632159045e+00 2.685295844840300261e-01 1.288386534066051192e+00 1.397576820632159045e+00
-1.368227572775911005e+00 -1.913101044805943562e+00 3.220799084890661468e-01 1.368227572775911005e+00 1.913101044805943562e+00 -3.220799084890661468e-01
8.152300311494288174e-03 -4.278223454308862500e-02 -7.462801863310548622e-01 -8.152300311494288174e-03 4.278223454308862500e-02 7.462801863310548622e-01
1.039322259004509669e-02 7.557552679063102123e-03 -6.875644642259543492e-03 -1.039322259004509669e-02 -7.557552679063102123e-03 6.875644642259543492e-03
3.689762683847331859e-01 4.384646565157866716e-02 2.592033697941186765e-01 -3.689762683847331859e-01 -4.384646565157866716e-02 -2.592033697941186765e-01
1.238893822561437208e+00 -3.755962939295679481e-01 7.190959617817627159e-01 -1.238893822561437208e+00 3.755962939295679481e-01 -7.190959617817627159e-01
7.499219485717957545e-02 -1.259336202688043360e-01 -4.128724077534939862e-02 -7.499219485717957545e-02 1.259336202688043360e-01 4.128724077534939862e-02
-5.350059629468315592e+00 3.787272293519989841e-01 -2.420885476493528810e+00 5.350059629468315592e+00 -3.787272293519989841e-01 2.420885476493528810e+00
9.761574996213574495e-01 1.082343297628958423e+00 -1.187353690018185581e+00 -9.761574996213574495e-01 -1.082343297628958423e+00 1.187353690018185581e+00
-1.450047281220192275e-01 2.689199293982427741e-01 -4.391380799114565914e-01 1.450047281220192275e-01 -2.689199293982427741e-01 4.391380799114565914e-01
-2.015376657380577363e+00 3.274636652564620665e+00 3.110246730601240905e+00 2.015376657380577363e+00 -3.274636652564620665e+00 -3.110246730601240905e+00
1.602568732899698357e-03 -1.046752747754838876e-02 -2.952006167999084996e-01 -1.602568732899698357e-03 1.046752747754838876e-02 2.952006167999084996e-01
-7.297717486325902003e-01 -2.508811195496151170e-01 -7.081287660745467782e-01 7.297717486325902003e-01 2.508811195496151170e-01 7.081287660745467782e-01
-1.217237624532052420e+00 -1.131556581618906154e+00 1.213193381769174239e+00 1.217237624532052420e+00 1.131556581618906154e+00 -1.213193381769174239e+00
1.662654390304435792e-01 5.996885732067163133e-01 -1.087964963733740187e-01 -1.662654390304435792e-01 -5.996885732067163133e-01 1.087964963733740187e-01
9.497476914082586541e-01 1.206656659973651236e+00 6.340222649075794026e-02 -9.497476914082586541e-01 -1.206656659973651236e+00 -6.340222649075794026e-02
-5.244556150874058353e+00 5.268829269339380339e+00 1.534621875507450328e+00 5.244556150874058353e+00 -5.268829269339380339e+00 -1.534621875507450328e+00
4.989234838641997127e-01 -7.692680616418741124e-01 -9.749844594180875346e-01 -4.989234838641997127e-01 7.692680616418741124e-01 9.749844594180875346e-01
1.078745346989707254e+00 1.210180459991601287e+00 -2.836049405839970450e-01 -1.078745346989707254e+00 -1.210180459991601287e+00 2.836049405839970450e-01
-2.766633111447518445e+00 -3.966029798246591964e-01 -2.778969368279224361e-01 2.766633111447518445e+00 3.966029798246591964e-01 2.778969368279224361e-01
4.090661463188963176e-02 -7.601389991586669781e-02 -2.853925773377440356e-01 -4.090661463188963176e-02 7.601389991586669781e-02 2.853925773377440356e-01
1.210769345508340145e+00 -1.792729903842255723e+00 -3.414598984171978380e+00 -1.210769345508340145e+00 1.792729903842255723e+00 3.414598984171978380e+00
1.512127600622336331e-02 -1.149746006703171973e-02 2.689440977699566679e-02 -1.512127600622336331e-02 1.149746006703171973e-02 -2.689440977699566679e-02
-3.972231813804911749e-01 3.786343045338624869e+00 1.015867728431342876e+00 3.972231813804911749e-01 -3.786343045338624869e+00 -1.015867728431342876e+00
-5.146371935098177988e-03 5.165387815650923642e-02 -3.068300258920845236e-01 5.146371935098177988e-03 -5.165387815650923642e-02 3.068300258920845236e-01
8.074205617617991049e-02 1.081310948202303668e-01 6.632484597563566009e-01 -8.074205617617991049e-02 -1.081310948202303668e-01 -6.632484597563566009e-01
-6.066461846245330830e-02 -8.940544041632141059e-02 5.744301050844123901e-01 6.066461846245330830e-02 8.940544041632141059e-02 -5.744301050844123901e-01
-8.048571716981044177e-02 -1.077007435375209876e-01 2.937321053969195808e-02 8.048571716981044177e-02 1.077007435375209876e-01 -2.937321053969195808e-02
2.477440803277746184e+00 -8.474698008360357804e+00 -6.063550225940685934e+00 -2.477440803277746184e+00 8.474698008360357804e+00 6.063550225940685934e+00
-2.420068328419262116e+00 -1.342181318579869886e+00 2.859363657013061499e-01 2.420068328419262116e+00 1.342181318579869886e+00 -2.859363657013061499e-01
6.735587899736299455e-01 -2.065132084227927933e+00 -4.830127762780797585e-01 -6.735587899736299455e-01 2.065132084227927933e+00 4.830127762780797585e-01
-9.392236510785538783e-01 -7.477391332294932580e-01 -7.436208426894491685e-01 9.392236510785538783e-01 7.477391332294932580e-01 7.436208426894491685e-01
-1.388335555197718563e+00 1.950992320823088599e+00 -1.551632758227226239e+00 1.388335555197718563e+00 -1.950992320823088599e+00 1.551632758227226239e+00
1.312666697354618162e+00 1.309453589468359880e+00 2.577977527218600518e+00 -1.312666697354618162e+00 -1.309453589468359880e+00 -2.577977527218600518e+00
-3.355547013167650139e-01 1.267400314153815488e+00 1.187719146651739777e-01 3.355547013167650139e-01 -1.267400314153815488e+00 -1.187719146651739777e-01
5.238687915955726471e-01 4.069437519058784147e+00 1.184412193492337118e-01 -5.238687915955726471e-01 -4.069437519058784147e+00 -1.184412193492337118e-01
2.416112737300713409e+00 1.639075521172111305e+00 3.103963982396983123e+00 -2.416112737300713409e+00 -1.639075521172111305e+00 -3.103963982396983123e+00
-3.016919843319174621e-01 1.201134649835638446e-01 -1.783611434304948951e+00 3.016919843319174621e-01 -1.201134649835638446e-01 1.783611434304948951e+00
-9.152819478381162346e-03 -1.991893021917218842e+00 4.814746908177953699e-01 9.152819478381162346e-03 1.991893021917218842e+00 -4.814746908177953699e-01
-1.375612810106860984e-01 -8.705416638096641346e-02 3.228962852323202792e-01 1.375612810106860984e-01 8.705416638096641346e-02 -3.228962852323202792e-01
3.787719665507033873e-01 2.262141080474239785e-01 1.532406407152300254e-01 -3.787719665507033873e-01 -2.262141080474239785e-01 -1.532406407152300254e-01
3.334838009621179378e+00 3.937562901646169955e+00 9.263722479748703886e-01 -3.334838009621179378e+00 -3.937562901646169955e+00 -9.263722479748703886e-01
-1.399920021402920323e-01 1.304885870058572761e-01 -5.538300648989239461e-01 1.399920021402920323e-01 -1.304885870058572761e-01 5.538300648989239461e-01
2.799017598258624062e+00 -1.622296449132518692e+00 -1.694675220254348691e+00 -2.799017598258624062e+00 1.622296449132518692e+00 1.694675220254348691e+00
2.060394569151333677e+00 1.080046993783735587e+00 -4.331393872079383200e-01 -2.060394569151333677e+00 -1.080046993783735587e+00 4.331393872079383200e-01
1.809639227978765974e-01 -7.334792282755658865e-02 -8.919507273827576022e-02 -1.809639227978765974e-01 7.334792282755658865e-02 8.919507273827576022e-02
-5.866794586220830388e-01 1.235250620502806734e-01 -7.858368174254886096e-01 5.866794586220830388e-01 -1.235250620502806734e-01 7.858368174254886096e-01
3.539079571080104292e-01 2.309757195048373291e+00 5.702133412851513317e-01 -3.539079571080104292e-01 -2.309757195048373291e+00 -5.702133412851513317e-01
1.186869242720490991e+00 1.953518018511323451e+00 -5.471655078436546971e-01 -1.186869242720490991e+00 -1.953518018511323451e+00 5.471655078436546971e-01
-4.328981714316135765e+00 -8.809320067639305751e-01 5.000577364019721749e+00 4.328981714316135765e+00 8.809320067639305751e-01 -5.000577364019721749e+00
-3.567871300880773866e-01 1.531369738271977365e-01 -4.807765334076693486e-01 3.567871300880773866e-01 -1.531369738271977365e-01 4.807765334076693486e-01
5.217121192323751266e+00 1.900044004854422042e+00 -9.499754397451113386e-01 -5.217121192323751266e+00 -1.900044004854422042e+00 9.499754397451113386e-01
-3.813890978171177171e+00 1.260801320234578693e+00 6.046501959377854618e+00 3.813890978171177171e+00 -1.260801320234578693e+00 -6.046501959377854618e+00
8.270808122420904018e-01 -3.706091247153764368e-03 -8.700043032045365332e-02 -8.270808122420904018e-01 3.706091247153764368e-03 8.700043032045365332e-02
5.756340499502356559e-03 1.563041155273388938e+00 2.038483369089333919e-01 -5.756340499502356559e-03 -1.563041155273388938e+00 -2.038483369089333919e-01
-3.488491055317569645e-01 -2.709446733051231182e-01 -3.814068332881903056e-01 3.488491055317569645e-01 2.709446733051231182e-01 3.814068332881903056e-01
-7.408549525240326616e-01 -1.831746603228187956e-02 1.116049382996272987e+00 7.408549525240326616e-01 1.831746603228187956e-02 -1.116049382996272987e+00
5.037043477436761035e-02 3.398057636350328842e-02 -4.518986716439768458e-02 -5.037043477436761035e-02 -3.398057636350328842e-02 4.518986716439768458e-02
