1.215849999999999937e+02 3.151849999999999952e+01 1.132129999999999939e+02 1.206850000000000023e+02 3.009609999999999985e+01 1.125160000000000053e+02 1.203769999999999953e+02 3.073250000000000171e+01 1.142330000000000041e+02 1.218070000000000022e+02 2.977670000000000172e+01 1.138649999999999949e+02 1.211290000000000049e+02 3.054789999999999850e+01 1.134869999999999948e+02 1.231110000000000042e+02 2.787760000000000105e+01 1.113490000000000038e+02 1.221410000000000053e+02 2.831360000000000099e+01 1.116959999999999980e+02
9.307529999999999859e+01 7.377559999999999718e+01 5.555660000000000309e+01 9.366540000000000532e+01 7.218129999999999313e+01 5.512400000000000233e+01 9.221599999999999397e+01 7.235850000000000648e+01 5.620989999999999753e+01 9.377240000000000464e+01 7.270879999999999654e+01 5.684040000000000248e+01 9.319219999999999970e+01 7.272969999999999402e+01 5.594469999999999743e+01 9.437800000000000011e+01 7.530979999999999563e+01 5.364920000000000044e+01 9.390070000000000050e+01 7.513020000000000209e+01 5.460920000000000130e+01
1.851439999999999841e+01 7.970600000000000307e+01 1.170340000000000060e+02 1.893319999999999936e+01 8.135039999999999338e+01 1.173539999999999992e+02 1.818130000000000024e+01 8.045420000000000016e+01 1.186839999999999975e+02 1.716750000000000043e+01 8.085490000000000066e+01 1.173059999999999974e+02 1.821170000000000044e+01 8.061249999999999716e+01 1.175610000000000070e+02 2.093779999999999930e+01 8.016889999999999361e+01 1.168340000000000032e+02 2.138850000000000051e+01 7.917969999999999686e+01 1.166280000000000001e+02
7.424009999999999998e+00 7.876049999999999329e+01 1.269749999999999979e+01 9.086990000000000123e+00 7.891230000000000189e+01 1.345700000000000074e+01 7.571139999999999759e+00 7.913939999999999486e+01 1.443260000000000076e+01 7.882950000000000124e+00 8.033899999999999864e+01 1.310009999999999941e+01 8.045189999999999841e+00 7.929229999999999734e+01 1.345149999999999935e+01 1.096969999999999956e+01 7.810989999999999611e+01 1.107119999999999926e+01 1.171610000000000085e+01 7.833509999999999707e+01 1.028580000000000005e+01
3.293800000000000239e+01 1.318750000000000000e+02 2.531309999999999860e+01 3.390310000000000201e+01 1.313189999999999884e+02 2.657310000000000016e+01 3.222769999999999868e+01 1.321409999999999911e+02 2.685500000000000043e+01 3.364209999999999923e+01 1.330540000000000020e+02 2.641369999999999862e+01 3.322549999999999670e+01 1.320920000000000130e+02 2.630979999999999919e+01 3.739889999999999759e+01 1.313240000000000123e+02 2.559029999999999916e+01 3.639050000000000296e+01 1.309120000000000061e+02 2.557799999999999940e+01
