-4.082800220064902533e+03
-4.082589157342087219e+03
-4.082792800608328889e+03
-4.082901115612914509e+03
-4.082801844883986178e+03
