2.241105855331699259e-01 -6.170714945846833555e-01 2.744582403316455643e-01 3.680168868718273756e-01 9.034448450154034527e-01 1.744576068708522554e+00 -6.097871987721894538e-01 2.186975387561395506e-02 2.451813433243367202e-01 3.066073169178444857e-01 4.834343343872507526e-01 1.898631286394645082e-02 -4.231804753997983060e-01 -5.354668332265881681e-01 -2.086717474070397760e+00 -1.650961217848589069e+00 7.759796184668167340e-01 6.129369546713169248e-01 1.785194102697734930e+00 -1.032190275355880704e+00 -8.094214972514379713e-01
-9.359561900669731427e-02 -1.448965412342557935e+00 1.038125976026740505e+00 -1.158573633026833000e-01 -3.550340489636744645e-01 2.920362056115503591e-01 -4.882972678864193616e-01 -4.761879366384868528e-01 -2.053972210033878087e-01 7.849889189548714397e-01 9.965956631384305375e-02 5.593545432961755104e-01 -5.260205480091195707e-01 1.163966316665142608e+00 -1.098234361985302332e+00 1.394719604874904428e+00 3.979297205876158872e-01 -2.821456183044661170e+00 -9.559377256248563492e-01 6.186317429560500569e-01 2.235571092520952430e+00
-2.125672055598818444e-01 -1.246077022589272415e-01 2.319079193128751604e-01 4.593108541382842636e-01 1.289540805214692387e+00 -3.826688850902617567e-01 3.116074444930400089e-01 -1.192187724315432462e-01 -1.180856357526349099e+00 4.784630031698418606e-01 2.648755323691622809e-01 -3.068173246414178656e-01 -1.533589577502863177e+00 -1.224842228402856170e+00 1.736203733370297320e+00 5.458169641240879777e-01 -1.753527982169273691e-01 -1.201871013841899483e-01 -4.904148286250945010e-02 8.960516372639946991e-02 2.241796453697906394e-02
5.414384779226139033e-01 -3.287094471163840015e-01 4.863807674315766549e-01 -5.774918778260877961e-01 5.309390687632301598e-01 -1.774111207338697482e-01 2.134408150642371493e-01 1.566947638317497948e-01 -2.034731100825586392e-01 8.170081033986251740e-01 -4.120412728768740873e-01 6.813589519670463224e-01 -9.993614504597121417e-01 5.400684912009096061e-02 -7.881737961260851799e-01 1.325594565072638620e-01 3.638954595856672830e-02 -1.281298567707181979e-01 -1.275935760290075882e-01 -3.727945625831202703e-02 1.294481643146087602e-01
-1.224139854383197168e-01 1.672085711700268540e-01 -1.406631115429255452e+00 4.354322971967076739e-01 -6.998490933019136939e-01 9.308963614714376167e-01 1.374903339841890171e+00 -5.689081463684670936e-01 -9.749073777389405393e-02 8.337059799936727966e-01 1.209185494408002048e+00 -1.238441359789712870e-01 -2.569348338653330899e+00 -9.095581575073263814e-02 7.102637074720289379e-01 2.442552935955690785e+00 1.004601616245887064e+00 2.860295939096407433e-02 -2.394832228896310866e+00 -1.021282677824869811e+00 -4.179703915230969374e-02
