LAMMPS (16 Mar 2018)
clear
units 	metal
dimension	3
boundary	p	p    p
atom_style	atomic
box         tilt large
read_data   conf.lmp
  triclinic box = (0 0 0) to (2.57003 10.9037 21.8452) with tilt (2.57003 21.8452 30.8938)
WARNING: Triclinic box skew is large (../domain.cpp:197)
  1 by 1 by 1 MPI processor grid
  reading atoms ...
  24 atoms
mass            1 1
neigh_modify    every 1 delay 0 check no
pair_style deepmd frozen_model.pb
pair_coeff
compute         mype all pe
thermo          100
thermo_style    custom step pe pxx pyy pzz pxy pxz pyz lx ly lz vol c_mype
dump            1 all custom 100 dump.relax id type xs ys zs fx fy fz
min_style       cg
minimize        1.000000e-12 1.000000e-06 5000 500000
WARNING: Using 'neigh_modify every 1 delay 0 check yes' setting during minimization (../min.cpp:168)
Neighbor list info ...
  update every 1 steps, delay 0 steps, check yes
  max neighbors/atom: 2000, page size: 100000
  master list distance cutoff = 10
  ghost atom cutoff = 10
  binsize = 5, bins = 6 9 5
  1 neighbor lists, perpetual/occasional/extra = 1 0 0
  (1) pair deepmd, perpetual
      attributes: , newton on
      pair build: full/bin/atomonly
      stencil: full/bin/3d
      bin: standard
Per MPI rank memory allocation (min/avg/max) = 5.236 | 5.236 | 5.236 Mbytes
Step PotEng Pxx Pyy Pzz Pxy Pxz Pyz Lx Ly Lz Volume c_mype 
       0   -83.939532    -20917.26   -17341.466   -9335.4451   0.11992612  0.063979203    1851.2681    2.5700275    10.903702    21.845229    612.16477   -83.939532 
      24   -84.077831   -15622.335   -10023.452 -0.0051939426 -0.0031774537 -0.00043109471 -0.019641866    2.5700275    10.903702    21.845229    612.16477   -84.077831 
Loop time of 2.87353 on 1 procs for 24 steps with 24 atoms

295.6% CPU use with 1 MPI tasks x no OpenMP threads

Minimization stats:
  Stopping criterion = energy tolerance
  Energy initial, next-to-last, final = 
        -83.9395320127     -84.0778305981     -84.0778305981
  Force two-norm initial, final = 1.18345 9.23049e-06
  Force max component initial, final = 0.444923 2.60744e-06
  Final line search alpha, max atom move = 1 2.60744e-06
  Iterations, force evaluations = 24 48

MPI task timing breakdown:
Section |  min time  |  avg time  |  max time  |%varavg| %total
---------------------------------------------------------------
Pair    | 2.8716     | 2.8716     | 2.8716     |   0.0 | 99.93
Neigh   | 0          | 0          | 0          |   0.0 |  0.00
Comm    | 0.00089383 | 0.00089383 | 0.00089383 |   0.0 |  0.03
Output  | 0          | 0          | 0          |   0.0 |  0.00
Modify  | 0          | 0          | 0          |   0.0 |  0.00
Other   |            | 0.001021   |            |       |  0.04

Nlocal:    24 ave 24 max 24 min
Histogram: 1 0 0 0 0 0 0 0 0 0
Nghost:    1856 ave 1856 max 1856 min
Histogram: 1 0 0 0 0 0 0 0 0 0
Neighs:    0 ave 0 max 0 min
Histogram: 1 0 0 0 0 0 0 0 0 0

Total # of neighbors = 0
Ave neighs/atom = 0
Neighbor list builds = 0
Dangerous builds not checked
variable        N equal count(all)
variable        V equal vol
variable        E equal "c_mype"
variable        tmplx equal lx
variable        tmply equal ly
variable        Pxx equal pxx
variable        Pyy equal pyy
variable        Pzz equal pzz
variable        Pxy equal pxy
variable        Pxz equal pxz
variable        Pyz equal pyz
variable        Epa equal ${E}/${N}
variable        Epa equal -84.0778305981187/${N}
variable        Epa equal -84.0778305981187/24
variable        Vpa equal ${V}/${N}
variable        Vpa equal 612.164774755284/${N}
variable        Vpa equal 612.164774755284/24
variable        AA equal (${tmplx}*${tmply})
variable        AA equal (2.5700275354*${tmply})
variable        AA equal (2.5700275354*10.9037015161)
print "All done"
All done
print "Total number of atoms = ${N}"
Total number of atoms = 24
print "Final energy per atoms = ${Epa}"
Final energy per atoms = -3.50324294158828
print "Final volume per atoms = ${Vpa}"
Final volume per atoms = 25.5068656148035
print "Final Base area = ${AA}"
Final Base area = 28.0228131341597
print "Final Stress (xx yy zz xy xz yz) = ${Pxx} ${Pyy} ${Pzz} ${Pxy} ${Pxz} ${Pyz}"
Final Stress (xx yy zz xy xz yz) = -15622.3351900839 -10023.4519296788 -0.00519394260982862 -0.00317745367941712 -0.000431094707452904 -0.0196418659036185
Total wall time: 0:00:04
