LAMMPS (16 Mar 2018)
clear
units 	metal
dimension	3
boundary	p	p    p
atom_style	atomic
box         tilt large
read_data   conf.lmp
  triclinic box = (0 0 0) to (2.57003 3.63457 21.8452) with tilt (2.57003 21.8452 30.8938)
WARNING: Triclinic box skew is large (../domain.cpp:197)
  1 by 1 by 1 MPI processor grid
  reading atoms ...
  8 atoms
mass            1 1
neigh_modify    every 1 delay 0 check no
pair_style deepmd frozen_model.pb
pair_coeff
compute         mype all pe
thermo          100
thermo_style    custom step pe pxx pyy pzz pxy pxz pyz lx ly lz vol c_mype
dump            1 all custom 100 dump.relax id type xs ys zs fx fy fz
min_style       cg
minimize        1.000000e-12 1.000000e-06 5000 500000
WARNING: Using 'neigh_modify every 1 delay 0 check yes' setting during minimization (../min.cpp:168)
Neighbor list info ...
  update every 1 steps, delay 0 steps, check yes
  max neighbors/atom: 2000, page size: 100000
  master list distance cutoff = 10
  ghost atom cutoff = 10
  binsize = 5, bins = 6 7 5
  1 neighbor lists, perpetual/occasional/extra = 1 0 0
  (1) pair deepmd, perpetual
      attributes: , newton on
      pair build: full/bin/atomonly
      stencil: full/bin/3d
      bin: standard
Per MPI rank memory allocation (min/avg/max) = 5.24 | 5.24 | 5.24 Mbytes
Step PotEng Pxx Pyy Pzz Pxy Pxz Pyz Lx Ly Lz Volume c_mype 
       0    -27.96504   -15958.794   -18404.847   -10204.786 -0.0096037679   0.22728342   0.65316529    2.5700275     3.634567    21.845227    204.05489    -27.96504 
      10   -28.016065   -10422.008   -8872.1292 -0.074885005  -0.01056277  0.051323084  0.067389867    2.5700275     3.634567    21.845227    204.05489   -28.016065 
Loop time of 0.495661 on 1 procs for 10 steps with 8 atoms

266.6% CPU use with 1 MPI tasks x no OpenMP threads

Minimization stats:
  Stopping criterion = energy tolerance
  Energy initial, next-to-last, final = 
        -27.9650398629     -28.0160650289     -28.0160650289
  Force two-norm initial, final = 0.745826 2.49327e-06
  Force max component initial, final = 0.402352 8.83816e-07
  Final line search alpha, max atom move = 1 8.83816e-07
  Iterations, force evaluations = 10 20

MPI task timing breakdown:
Section |  min time  |  avg time  |  max time  |%varavg| %total
---------------------------------------------------------------
Pair    | 0.49489    | 0.49489    | 0.49489    |   0.0 | 99.84
Neigh   | 0          | 0          | 0          |   0.0 |  0.00
Comm    | 0.00035524 | 0.00035524 | 0.00035524 |   0.0 |  0.07
Output  | 0          | 0          | 0          |   0.0 |  0.00
Modify  | 0          | 0          | 0          |   0.0 |  0.00
Other   |            | 0.0004141  |            |       |  0.08

Nlocal:    8 ave 8 max 8 min
Histogram: 1 0 0 0 0 0 0 0 0 0
Nghost:    1592 ave 1592 max 1592 min
Histogram: 1 0 0 0 0 0 0 0 0 0
Neighs:    0 ave 0 max 0 min
Histogram: 1 0 0 0 0 0 0 0 0 0

Total # of neighbors = 0
Ave neighs/atom = 0
Neighbor list builds = 0
Dangerous builds not checked
variable        N equal count(all)
variable        V equal vol
variable        E equal "c_mype"
variable        tmplx equal lx
variable        tmply equal ly
variable        Pxx equal pxx
variable        Pyy equal pyy
variable        Pzz equal pzz
variable        Pxy equal pxy
variable        Pxz equal pxz
variable        Pyz equal pyz
variable        Epa equal ${E}/${N}
variable        Epa equal -28.0160650289312/${N}
variable        Epa equal -28.0160650289312/8
variable        Vpa equal ${V}/${N}
variable        Vpa equal 204.05489250535/${N}
variable        Vpa equal 204.05489250535/8
variable        AA equal (${tmplx}*${tmply})
variable        AA equal (2.5700275354*${tmply})
variable        AA equal (2.5700275354*3.6345669796)
print "All done"
All done
print "Total number of atoms = ${N}"
Total number of atoms = 8
print "Final energy per atoms = ${Epa}"
Final energy per atoms = -3.5020081286164
print "Final volume per atoms = ${Vpa}"
Final volume per atoms = 25.5068615631688
print "Final Base area = ${AA}"
Final Base area = 9.34093721682761
print "Final Stress (xx yy zz xy xz yz) = ${Pxx} ${Pyy} ${Pzz} ${Pxy} ${Pxz} ${Pyz}"
Final Stress (xx yy zz xy xz yz) = -10422.0079208172 -8872.12922337329 -0.0748850045943862 -0.0105627701974949 0.0513230835969836 0.0673898674129367
Total wall time: 0:00:02
