LAMMPS (16 Mar 2018)
clear
units 	metal
dimension	3
boundary	p	p    p
atom_style	atomic
box         tilt large
read_data   conf.lmp
  triclinic box = (0 0 0) to (2.57003 2.57003 23.6247) with tilt (-3.097e-07 16.7052 -16.7052)
WARNING: Triclinic box skew is large (../domain.cpp:197)
  1 by 1 by 1 MPI processor grid
  reading atoms ...
  6 atoms
mass            1 1
neigh_modify    every 1 delay 0 check no
pair_style deepmd frozen_model.pb
pair_coeff
compute         mype all pe
thermo          100
thermo_style    custom step pe pxx pyy pzz pxy pxz pyz lx ly lz vol c_mype
dump            1 all custom 100 dump.relax id type xs ys zs fx fy fz
min_style       cg
minimize        1.000000e-12 1.000000e-06 5000 500000
WARNING: Using 'neigh_modify every 1 delay 0 check yes' setting during minimization (../min.cpp:168)
Neighbor list info ...
  update every 1 steps, delay 0 steps, check yes
  max neighbors/atom: 2000, page size: 100000
  master list distance cutoff = 10
  ghost atom cutoff = 10
  binsize = 5, bins = 4 4 5
  1 neighbor lists, perpetual/occasional/extra = 1 0 0
  (1) pair deepmd, perpetual
      attributes: , newton on
      pair build: full/bin/atomonly
      stencil: full/bin/3d
      bin: standard
Per MPI rank memory allocation (min/avg/max) = 5.199 | 5.199 | 5.199 Mbytes
Step PotEng Pxx Pyy Pzz Pxy Pxz Pyz Lx Ly Lz Volume c_mype 
       0   -21.136673   -18495.225     -18495.1   -4966.8068   0.01020779   0.21326451  -0.14239229    2.5700275    2.5700271    23.624682    156.04198   -21.136673 
      11   -21.145903   -14720.713    -14720.59  -0.37214797  0.011425377  0.041298141 -0.027573956    2.5700275    2.5700271    23.624682    156.04198   -21.145903 
Loop time of 0.620899 on 1 procs for 11 steps with 6 atoms

300.7% CPU use with 1 MPI tasks x no OpenMP threads

Minimization stats:
  Stopping criterion = energy tolerance
  Energy initial, next-to-last, final = 
        -21.1366733405     -21.1459034639     -21.1459034639
  Force two-norm initial, final = 0.370448 5.57995e-06
  Force max component initial, final = 0.197298 3.89638e-06
  Final line search alpha, max atom move = 1 3.89638e-06
  Iterations, force evaluations = 11 22

MPI task timing breakdown:
Section |  min time  |  avg time  |  max time  |%varavg| %total
---------------------------------------------------------------
Pair    | 0.61971    | 0.61971    | 0.61971    |   0.0 | 99.81
Neigh   | 0          | 0          | 0          |   0.0 |  0.00
Comm    | 0.00050235 | 0.00050235 | 0.00050235 |   0.0 |  0.08
Output  | 0          | 0          | 0          |   0.0 |  0.00
Modify  | 0          | 0          | 0          |   0.0 |  0.00
Other   |            | 0.000689   |            |       |  0.11

Nlocal:    6 ave 6 max 6 min
Histogram: 1 0 0 0 0 0 0 0 0 0
Nghost:    1194 ave 1194 max 1194 min
Histogram: 1 0 0 0 0 0 0 0 0 0
Neighs:    0 ave 0 max 0 min
Histogram: 1 0 0 0 0 0 0 0 0 0

Total # of neighbors = 0
Ave neighs/atom = 0
Neighbor list builds = 0
Dangerous builds not checked
variable        N equal count(all)
variable        V equal vol
variable        E equal "c_mype"
variable        tmplx equal lx
variable        tmply equal ly
variable        Pxx equal pxx
variable        Pyy equal pyy
variable        Pzz equal pzz
variable        Pxy equal pxy
variable        Pxz equal pxz
variable        Pyz equal pyz
variable        Epa equal ${E}/${N}
variable        Epa equal -21.1459034639354/${N}
variable        Epa equal -21.1459034639354/6
variable        Vpa equal ${V}/${N}
variable        Vpa equal 156.041978816316/${N}
variable        Vpa equal 156.041978816316/6
variable        AA equal (${tmplx}*${tmply})
variable        AA equal (2.5700275354*${tmply})
variable        AA equal (2.5700275354*2.5700270707)
print "All done"
All done
print "Total number of atoms = ${N}"
Total number of atoms = 6
print "Final energy per atoms = ${Epa}"
Final energy per atoms = -3.52431724398923
print "Final volume per atoms = ${Vpa}"
Final volume per atoms = 26.006996469386
print "Final Base area = ${AA}"
Final Base area = 6.6050403384224
print "Final Stress (xx yy zz xy xz yz) = ${Pxx} ${Pyy} ${Pzz} ${Pxy} ${Pxz} ${Pyz}"
Final Stress (xx yy zz xy xz yz) = -14720.713210521 -14720.5895767282 -0.372147965784583 0.0114253770553175 0.0412981409058906 -0.0275739564750944
Total wall time: 0:00:03
