9.500003794602772444e+00 0.000000000000000000e+00 0.000000000000000000e+00 0.000000000000000000e+00 9.500003794602772444e+00 0.000000000000000000e+00 0.000000000000000000e+00 0.000000000000000000e+00 9.500003794602772444e+00
9.500003794602772444e+00 0.000000000000000000e+00 0.000000000000000000e+00 0.000000000000000000e+00 9.500003794602772444e+00 0.000000000000000000e+00 0.000000000000000000e+00 0.000000000000000000e+00 9.500003794602772444e+00
9.500003794602772444e+00 0.000000000000000000e+00 0.000000000000000000e+00 0.000000000000000000e+00 9.500003794602772444e+00 0.000000000000000000e+00 0.000000000000000000e+00 0.000000000000000000e+00 9.500003794602772444e+00
9.500003794602772444e+00 0.000000000000000000e+00 0.000000000000000000e+00 0.000000000000000000e+00 9.500003794602772444e+00 0.000000000000000000e+00 0.000000000000000000e+00 0.000000000000000000e+00 9.500003794602772444e+00
9.679120507628656611e+00 0.000000000000000000e+00 0.000000000000000000e+00 6.483195033755180525e-02 9.384493548173903577e+00 0.000000000000000000e+00 2.108941915338771733e-01 -3.198873651008774660e-02 9.460865082843536555e+00
9.679120507628656611e+00 0.000000000000000000e+00 0.000000000000000000e+00 6.483195033755180525e-02 9.384493548173903577e+00 0.000000000000000000e+00 2.108941915338771733e-01 -3.198873651008774660e-02 9.460865082843536555e+00
9.679120507628656611e+00 0.000000000000000000e+00 0.000000000000000000e+00 6.483195033755180525e-02 9.384493548173903577e+00 0.000000000000000000e+00 2.108941915338771733e-01 -3.198873651008774660e-02 9.460865082843536555e+00
9.679120507628656611e+00 0.000000000000000000e+00 0.000000000000000000e+00 6.483195033755180525e-02 9.384493548173903577e+00 0.000000000000000000e+00 2.108941915338771733e-01 -3.198873651008774660e-02 9.460865082843536555e+00
