9.500003794601733276e+00 0.000000000000000000e+00 0.000000000000000000e+00 0.000000000000000000e+00 9.500003794601733276e+00 0.000000000000000000e+00 0.000000000000000000e+00 0.000000000000000000e+00 9.500003794601733276e+00
9.500003794601733276e+00 0.000000000000000000e+00 0.000000000000000000e+00 0.000000000000000000e+00 9.500003794601733276e+00 0.000000000000000000e+00 0.000000000000000000e+00 0.000000000000000000e+00 9.500003794601733276e+00
9.500003794601733276e+00 0.000000000000000000e+00 0.000000000000000000e+00 0.000000000000000000e+00 9.500003794601733276e+00 0.000000000000000000e+00 0.000000000000000000e+00 0.000000000000000000e+00 9.500003794601733276e+00
9.706914375293798969e+00 0.000000000000000000e+00 0.000000000000000000e+00 -2.813826031966266683e-01 9.684068716817010980e+00 0.000000000000000000e+00 1.582462665518686029e-01 -1.638176684236652414e-01 9.582973862484221783e+00
9.706914375293798969e+00 0.000000000000000000e+00 0.000000000000000000e+00 -2.813826031966266683e-01 9.684068716817010980e+00 0.000000000000000000e+00 1.582462665518686029e-01 -1.638176684236652414e-01 9.582973862484221783e+00
9.706914375293798969e+00 0.000000000000000000e+00 0.000000000000000000e+00 -2.813826031966266683e-01 9.684068716817010980e+00 0.000000000000000000e+00 1.582462665518686029e-01 -1.638176684236652414e-01 9.582973862484221783e+00
9.270692588887365915e+00 0.000000000000000000e+00 0.000000000000000000e+00 1.282384570089394570e-02 9.562095206948105997e+00 0.000000000000000000e+00 1.695607748098341694e-01 -3.003052827686297777e-02 9.586097959903160159e+00
9.270692588887365915e+00 0.000000000000000000e+00 0.000000000000000000e+00 1.282384570089394570e-02 9.562095206948105997e+00 0.000000000000000000e+00 1.695607748098341694e-01 -3.003052827686297777e-02 9.586097959903160159e+00
9.270692588887365915e+00 0.000000000000000000e+00 0.000000000000000000e+00 1.282384570089394570e-02 9.562095206948105997e+00 0.000000000000000000e+00 1.695607748098341694e-01 -3.003052827686297777e-02 9.586097959903160159e+00
