5.097445536080835282e+00 3.891296554306815647e+00 3.462257382935012284e+00 3.796296516360798901e+00 4.557085320243889015e+00 4.168354664972580892e+00 5.223520086438995236e+00 5.328267128278273645e+00 4.206763180314156081e+00 5.007081499986584028e+00 3.977917588905994339e+00 5.081172029580683258e+00 4.779784409196943251e+00 4.440311273600644704e+00 4.230028689607135739e+00
5.103858038642191453e+00 3.880191049870926445e+00 3.446696376719454946e+00 3.775406008016469528e+00 4.559602821249458593e+00 4.167053164452720893e+00 5.232839590161499466e+00 5.347001135761228596e+00 4.206288180124425402e+00 5.011717501838350408e+00 3.968455585126571261e+00 5.098652036562749679e+00 4.779831909215916497e+00 4.440254273577877164e+00 4.230019189603340557e+00
5.119884545043685620e+00 3.852460538794483913e+00 3.407831861195739442e+00 3.723554987305532915e+00 4.565872823753895915e+00 4.163823163162556185e+00 5.256010099416533521e+00 5.393560654358571682e+00 4.205100679650100481e+00 5.023279006456379925e+00 3.944876575708369693e+00 5.142219053964794284e+00 4.779936409257657282e+00 4.440121273524752610e+00 4.229990689591956787e+00
5.096427141274351591e+00 3.892434814655956199e+00 3.461810975926975509e+00 3.799155116014967248e+00 4.554677025268077273e+00 4.165565410440091654e+00 5.223901104614204094e+00 5.330327801876574512e+00 4.211142034130066492e+00 5.005414683285621003e+00 3.981651944054248382e+00 5.086652109180486825e+00 4.779872942327282992e+00 4.438974334583333459e+00 4.227730161886026572e+00
5.103261184602785328e+00 3.880885452800337809e+00 3.445730745785726690e+00 3.777497491778390781e+00 4.557324506181583246e+00 4.164214211125480958e+00 5.232832268549433508e+00 5.348378395685436715e+00 4.210605387593767013e+00 5.009806980159292600e+00 3.972575732728341968e+00 5.103211488014860464e+00 4.780001031169360814e+00 4.438972368771311849e+00 4.227845157572376777e+00
5.120317329672263718e+00 3.852138687647257420e+00 3.405769744779167496e+00 3.723931089270374528e+00 4.563947804773200723e+00 4.160850587299749215e+00 5.255117341672209008e+00 5.393433560233562574e+00 4.209187107462120103e+00 5.020812710907808452e+00 3.949719756157049844e+00 5.144657849970104557e+00 4.780287402210577241e+00 4.438957933990210769e+00 4.228123063814388516e+00
5.092902177223409765e+00 3.892432334041243447e+00 3.458357388798343202e+00 3.803614275703672387e+00 4.550054118936396108e+00 4.167057610973984083e+00 5.219810487586725500e+00 5.333212587629732937e+00 4.208594173434244468e+00 5.008144400245305050e+00 3.980022803515795626e+00 5.084715596479592925e+00 4.787731765421213481e+00 4.439473528109648903e+00 4.223443039174134661e+00
5.100124249224302631e+00 3.880379635300070795e+00 3.441466684192993952e+00 3.782477175789192625e+00 4.552601510199592028e+00 4.165821004337156630e+00 5.229095946058231803e+00 5.351937001907162816e+00 4.208009421458690724e+00 5.012598716327302917e+00 3.971175194607369896e+00 5.100829827150191065e+00 4.787754168232674523e+00 4.439444151121876736e+00 4.223663519427212520e+00
5.118183394455877000e+00 3.850590682409233079e+00 3.399700055381695840e+00 3.730032485145450494e+00 4.558979655559638466e+00 4.162695936402228014e+00 5.252297961232436307e+00 5.398442395905188818e+00 4.206437301393266104e+00 5.023908229323359897e+00 3.948874057084713840e+00 5.141254402247102284e+00 4.787753781670383901e+00 4.439366062742222674e+00 4.224171582619086429e+00
