5.113541513666988614e+00 3.863321621856395272e+00 3.422849405750413077e+00 3.744792403700195393e+00 4.563437071260724842e+00 4.165241540969359946e+00 5.246389149540494401e+00 5.374789016472041325e+00 4.205651317203156658e+00 5.018535901976148850e+00 3.954367808247492011e+00 5.125120084596087366e+00 4.780862619202477681e+00 4.438958262478904793e+00 4.229719203879755085e+00
5.120025271365844510e+00 3.856579371274426293e+00 3.414705952782826515e+00 3.737785044340109497e+00 4.567585642723551942e+00 4.159519054131839866e+00 5.250084679248121944e+00 5.385581123343794019e+00 4.200962896678091418e+00 5.021803418638587146e+00 3.949167678661201553e+00 5.132094095892159480e+00 4.780322156232239550e+00 4.438706615138793055e+00 4.230691143249183384e+00
5.130668193311530345e+00 3.842257606605119058e+00 3.395862296092527544e+00 3.714827908695999437e+00 4.573237572833039444e+00 4.153228609383069703e+00 5.260288809266615573e+00 5.408911614680068425e+00 4.196383384031074470e+00 5.028390217665488215e+00 3.936998920621842313e+00 5.152530157847158954e+00 4.779946425252074249e+00 4.438497469932701556e+00 4.231469808740525806e+00
5.139819240552561119e+00 3.829166724568353608e+00 3.378433997779851872e+00 3.691026689252517201e+00 4.577843098496067853e+00 4.148427493258955323e+00 5.270227718944992645e+00 5.430404213260533908e+00 4.193244443684692513e+00 5.034444098407153234e+00 3.925351014385712656e+00 5.173263307232290664e+00 4.779833739227024481e+00 4.438383380785650978e+00 4.231858841799698290e+00
5.113130842373807994e+00 3.868695650279761811e+00 3.415487571001170508e+00 3.744651239412133403e+00 4.563580662541786737e+00 4.164111062857862144e+00 5.240406961795859964e+00 5.372954889528233302e+00 4.205693456774174166e+00 5.018637881428192671e+00 3.954691356908634603e+00 5.129125907828851361e+00 4.777789213993123951e+00 4.437703393219351256e+00 4.232924724680167117e+00
5.119291532870520633e+00 3.862413940254995293e+00 3.408309249042009270e+00 3.737114389353814126e+00 4.567707592816605100e+00 4.158438791080364183e+00 5.244273868122562909e+00 5.384140787221159741e+00 4.201093323698148474e+00 5.021865322738613635e+00 3.949477760356338241e+00 5.135847808612812315e+00 4.777309286134913791e+00 4.437382988427210684e+00 4.233825195674564945e+00
5.129194981686882038e+00 3.849057223489113166e+00 3.391777933906729103e+00 3.712887216905144339e+00 4.573278252293058621e+00 4.152308704082664725e+00 5.254885805290236078e+00 5.408420515728852074e+00 4.196773594748246516e+00 5.028351580134470034e+00 3.937225159892942195e+00 5.155667666999540266e+00 4.777076424627810347e+00 4.437027035111054118e+00 4.234426241708828975e+00
5.137770373040658534e+00 3.836513195982588886e+00 3.376448677962978095e+00 3.687820383509105238e+00 4.577748259206027015e+00 4.147750333825657165e+00 5.265244251783798290e+00 5.430908726685756527e+00 4.193982473292017232e+00 5.034322955639100705e+00 3.925327005711702455e+00 5.175896964276449630e+00 4.777089989406817061e+00 4.436815864047960467e+00 4.234631824221919416e+00
