-2.191299378191779965e+02
-2.194405277004599952e+02
-2.198624336150280101e+02
-2.191326527145239993e+02
-2.194421046524030032e+02
-2.198623721410370138e+02
-2.191187282189270036e+02
-2.194341917153120107e+02
-2.198612731451000002e+02
