-2.194176123439999913e+02
-2.194929689141850133e+02
-2.196084128243170142e+02
-2.196339131271809890e+02
-2.194202173360000074e+02
-2.194938055581540084e+02
-2.196077839102829898e+02
-2.196330220266449942e+02
