6.681760905239999548e-01 -1.155967561983000103e+00 -1.620154186473999891e+00 -2.080502119690000207e+00 2.497103336489999992e-01 -1.295823446350000130e-01 9.348012021010000394e-01 1.879024337850000004e+00 -4.843350938899999847e-02 4.774995971179999965e-01 -9.733571309149999795e-01 1.797915441510999912e+00 2.522994699999999902e-05 5.900213989999999586e-04 2.545989869999999906e-04
4.902549688719999854e-01 -8.603996332259999935e-01 -1.205700903469000052e+00 -1.763823817171999986e+00 1.889546707599999986e-01 -9.843194327899999763e-02 7.252026927829999803e-01 1.420961754764999974e+00 -1.878482660100000076e-02 3.788428604390000065e-01 -7.845533793900000274e-01 1.495612918186999929e+00 1.695232950780000136e-01 3.503658709100000018e-02 -1.726952448380000005e-01
1.600251149420000019e-01 -3.088749268920000235e-01 -4.309845942409999964e-01 -8.343811928180000503e-01 5.437479820200000202e-02 -2.141280961400000155e-02 2.937467391099999880e-01 5.233057998300000291e-01 2.732362033599999851e-02 1.460526182509999937e-01 -3.256663520390000177e-01 6.880404890289999464e-01 2.345567205150000112e-01 5.686068089900000316e-02 -2.629667055100000095e-01
-1.014967635109999960e-01 1.250831527160000123e-01 1.800253993350000026e-01 8.654394694999999540e-03 -6.285089338900000377e-02 5.043301099599999809e-02 -5.771566249800000326e-02 -1.984398833290000053e-01 6.496074637099999438e-02 -5.642669293500000155e-02 7.369607476700000548e-02 -2.676083779900000070e-02 2.069847242489999961e-01 6.251154923500000515e-02 -2.686583189019999818e-01
6.006731840350000295e-01 -1.059740442672999938e+00 -1.418495993187999904e+00 -2.191135947068000078e+00 2.451885403140000030e-01 -1.190902165670000012e-01 9.706092934319999754e-01 1.961304510034000081e+00 -2.998638941900000007e-02 4.691260984799999756e-01 -9.761709706690000488e-01 1.745238499110000063e+00 1.507273711209999867e-01 -1.705816370059999865e-01 -1.776658999359999880e-01
4.420952958250000120e-01 -8.015875351619999867e-01 -1.052519150428000039e+00 -1.844676097365000045e+00 1.816663955479999870e-01 -8.535898558099999645e-02 7.507074338789999635e-01 1.480714365731000015e+00 9.302213549999999468e-04 3.713432452559999875e-01 -7.909188087580000248e-01 1.452768625602999908e+00 2.805301224060000043e-01 -6.987441735900000450e-02 -3.158207109480000163e-01
1.486986759820000115e-01 -3.179899281079999751e-01 -3.700184322000000248e-01 -8.545027028670000302e-01 4.119800933300000328e-02 -2.061590459000000198e-03 2.997173780390000042e-01 5.403247622500000347e-01 4.908535374100000265e-02 1.399911739220000007e-01 -3.386418890180000196e-01 6.657504093030000014e-01 2.660954749230000083e-01 7.510904554300000535e-02 -3.427557403859999852e-01
-8.944999494800000284e-02 7.442795737500000619e-02 1.800067342520000058e-01 3.338775485699999740e-02 -7.984094083499999883e-02 7.354084325800000488e-02 -6.629687001900000376e-02 -2.143503895849999952e-01 8.691687501900000057e-02 -6.278862867499999945e-02 5.975731948900000340e-02 -3.768322513999999845e-02 1.851477387859999935e-01 1.600060535560000052e-01 -3.027812273889999850e-01
