1.340516999999999959e+00 -2.319939999999999891e+00 -3.252981999999999818e+00 -4.366520999999999653e+00 5.253839999999999621e-01 -2.713240000000000096e-01 1.946277000000000035e+00 3.914839999999999876e+00 -1.002760000000000040e-01 9.686479999999999535e-01 -1.975710000000000077e+00 3.652965000000000018e+00 1.110799999999999982e-01 -1.445730000000000071e-01 -2.838299999999999851e-02
1.004871000000000070e+00 -1.739881000000000011e+00 -2.441946999999999868e+00 -3.252618000000000009e+00 3.932160000000000100e-01 -2.014640000000000042e-01 1.449497000000000035e+00 2.920978999999999992e+00 -7.423100000000000531e-02 7.239849999999999897e-01 -1.478039000000000103e+00 2.737074999999999925e+00 7.426499999999999768e-02 -9.627499999999999947e-02 -1.943299999999999889e-02
3.081909999999999927e-01 -5.357279999999999820e-01 -7.577249999999999819e-01 -9.752370000000000205e-01 1.223179999999999962e-01 -5.883499999999999841e-02 4.313279999999999892e-01 8.821980000000000377e-01 -2.097399999999999959e-02 2.183859999999999968e-01 -4.492929999999999979e-01 8.426649999999999974e-01 1.733200000000000018e-02 -1.949499999999999844e-02 -5.131000000000000144e-03
1.427623000000000086e+00 -2.413518999999999970e+00 -3.360831999999999820e+00 -4.528626000000000040e+00 5.543489999999999807e-01 -2.825799999999999979e-01 1.865701999999999972e+00 3.772834000000000021e+00 -1.115990000000000038e-01 9.166830000000000256e-01 -1.897685000000000066e+00 3.461780000000000079e+00 3.186169999999999836e-01 -1.597900000000000015e-02 2.932310000000000194e-01
1.068959999999999910e+00 -1.799541999999999975e+00 -2.503127999999999798e+00 -3.353024000000000004e+00 4.141170000000000129e-01 -2.095920000000000005e-01 1.397261000000000086e+00 2.832427000000000028e+00 -9.248800000000000077e-02 6.915970000000000173e-01 -1.440531999999999924e+00 2.608916999999999931e+00 1.952059999999999906e-01 -6.470000000000000057e-03 1.962909999999999933e-01
3.321569999999999800e-01 -5.401329999999999742e-01 -7.446800000000000086e-01 -9.782939999999999969e-01 1.297010000000000107e-01 -6.194899999999999712e-02 4.260439999999999783e-01 8.800499999999999989e-01 -5.013700000000000101e-02 2.190239999999999965e-01 -4.777859999999999885e-01 8.186620000000000008e-01 1.069000000000000072e-03 8.167999999999999913e-03 3.810399999999999898e-02
1.508321999999999941e+00 -2.517781999999999965e+00 -3.530746999999999858e+00 -4.418461999999999890e+00 5.307359999999999856e-01 -2.590069999999999872e-01 1.940423000000000009e+00 3.914120000000000044e+00 -1.216489999999999932e-01 9.302350000000000341e-01 -1.848592999999999931e+00 3.369225999999999832e+00 3.948200000000000320e-02 -7.847999999999999421e-02 5.421770000000000200e-01
1.133156999999999970e+00 -1.856662000000000035e+00 -2.608308000000000071e+00 -3.288841000000000125e+00 4.018760000000000110e-01 -1.963060000000000083e-01 1.454909000000000008e+00 2.915560000000000151e+00 -1.033980000000000038e-01 7.166339999999999932e-01 -1.407418999999999976e+00 2.547271999999999981e+00 -1.585999999999999910e-02 -5.335600000000000065e-02 3.607400000000000051e-01
3.706369999999999942e-01 -5.229000000000000314e-01 -7.455789999999999917e-01 -9.850360000000000227e-01 1.368810000000000027e-01 -6.710800000000000098e-02 4.571290000000000076e-01 8.672569999999999446e-01 -6.185999999999999832e-02 2.617059999999999942e-01 -4.714160000000000017e-01 8.086250000000000382e-01 -1.044360000000000011e-01 -9.821999999999999134e-03 6.592199999999999449e-02
