2.925185435890660823e+00 -1.143066424579545657e-04 8.881725950484575360e-05 -1.143066424579545657e-04 2.926987607980041428e+00 -1.622153345284976810e-04 8.881725950484575360e-05 -1.622153345284976810e-04 2.926977964750569594e+00
2.436657435753112111e+00 -1.143020376950368636e-02 4.544063554962263218e-02 -1.143020376950368636e-02 2.255249757662518117e+00 -6.082814107967922379e-02 4.544063554962263218e-02 -6.082814107967922379e-02 2.339991196674894525e+00
1.122805829437958147e+00 4.027865798844964401e-03 5.579882761091184418e-02 4.027865798844964401e-03 8.632917807339579586e-01 -6.449198040758287453e-02 5.579882761091184418e-02 -6.449198040758287453e-02 9.953008144738632046e-01
-8.627979325430941426e-02 3.478382138386666711e-02 3.502648607774696415e-02 3.478382138386666711e-02 -3.189408991107919311e-01 -2.448769152305691615e-02 3.502648607774696415e-02 -2.448769152305691615e-02 -1.845621096491250612e-01
3.025236369053594832e+00 6.359114793509076935e-02 5.382261098457663540e-02 6.359114793509076935e-02 2.940675387546062058e+00 -7.889899733201287402e-02 5.382261098457663540e-02 -7.889899733201287402e-02 2.733246715970101715e+00
2.509450100200702138e+00 3.496063080696146241e-02 8.455888007773477988e-02 3.496063080696146241e-02 2.273669135860442836e+00 -1.139127866385887533e-01 8.455888007773477988e-02 -1.139127866385887533e-01 2.186437923758526747e+00
1.138305236971204781e+00 1.726041882590492391e-02 6.262916189679723633e-02 1.726041882590492391e-02 8.889569868360537308e-01 -6.779923277145767646e-02 6.262916189679723633e-02 -6.779923277145767646e-02 9.244179456601920863e-01
-1.187496309838749348e-01 2.448581565458010298e-02 1.754917825266641071e-02 2.448581565458010298e-02 -2.962521051255574966e-01 7.964505747695275681e-03 1.754917825266641071e-02 7.964505747695275681e-03 -1.987105956507752014e-01
