5.795858174693855780e+00 3.443092965380536302e-02 1.929418518002443822e-02 3.443092965380536302e-02 5.716638835032358479e+00 -2.389685573149830794e-02 1.929418518002443822e-02 -2.389685573149830794e-02 5.617522216398079138e+00
4.408988076950304702e+00 2.176542487386309843e-02 1.214803211126708540e-02 2.176542487386309843e-02 4.359248625442528002e+00 -1.506503678236161513e-02 1.214803211126708540e-02 -1.506503678236161513e-02 4.296671356642591810e+00
1.386467678460361785e+00 -6.721258240496656147e-04 -3.665654374793160769e-04 -6.721258240496656147e-04 1.386947691887250755e+00 5.415536098234567707e-04 -3.665654374793160769e-04 5.415536098234567707e-04 1.389181332961759718e+00
5.920273248601972682e+00 -6.039738868480488271e-02 -5.548276701405261552e-02 -6.039738868480488271e-02 5.605862281032128358e+00 1.215189545474988780e-01 -5.548276701405261552e-02 1.215189545474988780e-01 5.558883535614017823e+00
4.490640109820734693e+00 -4.527006960785832923e-02 -4.134669356180990796e-02 -4.527006960785832923e-02 4.293001025437428453e+00 7.126623109612076346e-02 -4.134669356180990796e-02 7.126623109612076346e-02 4.248516980437247348e+00
1.394114722102968162e+00 -1.766924844126081806e-02 -1.462129465140290206e-02 -1.766924844126081806e-02 1.399656251812032570e+00 -1.912491203874137902e-02 -1.462129465140290206e-02 -1.912491203874137902e-02 1.360744660235811310e+00
5.844498499100296840e+00 -6.853191054575857519e-03 -1.324669162954480450e-01 -6.853191054575857519e-03 5.775330648915621978e+00 2.461468284624128700e-01 -1.324669162954480450e-01 2.461468284624128700e-01 5.611345206312754463e+00
4.456000939126254501e+00 -1.359924298733263329e-02 -9.024508563996384847e-02 -1.359924298733263329e-02 4.394864279944473040e+00 1.488666274174575976e-01 -9.024508563996384847e-02 1.488666274174575976e-01 4.279539092748385620e+00
1.432096287462409911e+00 -2.596479489866933624e-02 -1.308794539607722671e-02 -2.596479489866933624e-02 1.380061149718328606e+00 -2.498250948476371872e-02 -1.308794539607722671e-02 -2.498250948476371872e-02 1.354370036932820875e+00
