# LAMMPS data file written by OVITO
5 atoms
2 atom types
0.0 10.1431351 xlo xhi
0.0 10.0973311 ylo yhi
0.0 9.955081 zlo zhi
-0.0732233 0.0036644 -0.2189468 xy xz yz

Atoms # atomic

1 1 5.4261132 4.0239954 3.5933433
2 1 3.960691 4.7516818 4.367476
3 1 5.5576844 5.6094632 4.4065232
4 1 5.3246322 4.0828543 5.3657794
5 2 5.0754132 4.6177769 4.43535
