# LAMMPS data file written by OVITO
5 atoms
2 atom types
0.0 9.7539492 xlo xhi
0.0 9.9888878 ylo yhi
0.0 10.2074556 zlo zhi
0.2772828 -0.0136468 0.1125032 xy xz yz

Atoms # atomic

1 1 5.3591437 4.1043491 3.6831184
2 1 3.9776306 4.8423328 4.4751697
3 1 5.5361333 5.6971865 4.5181194
4 1 5.2586079 4.2189784 5.5057793
5 2 5.0340066 4.7174998 4.5458536
