# LAMMPS data file written by OVITO
5 atoms
2 atom types
0.0 10.0737019 xlo xhi
0.0 9.8935882 ylo yhi
0.0 10.1754723 zlo zhi
0.019639 0.0071007 -0.1292957 xy xz yz

Atoms # atomic

1 1 5.4350477 3.9759376 3.670362
2 1 3.9909484 4.6960774 4.4528346
3 1 5.5816789 5.5410171 4.5051222
4 1 5.3363366 4.0540013 5.4903217
5 2 5.0849338 4.5620189 4.5335665
