# LAMMPS data file written by OVITO
5 atoms
2 atom types
0.0 9.821743 xlo xhi
0.0 9.9648276 ylo yhi
0.0 9.9105692 zlo zhi
0.0833932 0.265246 -0.2797133 xy xz yz

Atoms # atomic

1 1 5.4160848 3.949291 3.5661228
2 1 4.0296426 4.6665273 4.3408909
3 1 5.5943918 5.514431 4.3875976
4 1 5.3638468 3.9958802 5.3461676
5 2 5.0987248 4.5333724 4.4184775
