# LAMMPS data file written by OVITO
5 atoms
2 atom types
0.0 9.755889 xlo xhi
0.0 9.72958 ylo yhi
0.0 10.1117773 zlo zhi
-0.0443262 -0.1697095 0.0391931 xy xz yz

Atoms # atomic

1 1 5.172955 3.9790302 3.6475561
2 1 3.7553697 4.6861172 4.4367285
3 1 5.2864237 5.5181113 4.4770212
4 1 5.0436554 4.0725246 5.4526191
5 2 4.8087921 4.5675726 4.5018335
