# LAMMPS data file written by OVITO
5 atoms
2 atom types
0.0 9.8058081 xlo xhi
0.0 9.8628446 ylo yhi
0.0 10.085247 zlo zhi
-0.2002211 -0.2105793 -0.2364119 xy xz yz

Atoms # atomic

1 1 5.1196289 3.9275932 3.6364761
2 1 3.6796828 4.6356488 4.4297881
3 1 5.2093563 5.4701863 4.4646425
4 1 4.9817014 3.9784502 5.4367733
5 2 4.7469449 4.5025249 4.488183
