# LAMMPS data file written by OVITO
5 atoms
2 atom types
0.0 10.048543 xlo xhi
0.0 10.1378288 ylo yhi
0.0 10.1696377 zlo zhi
0.1462974 0.1490568 0.0755774 xy xz yz

Atoms # atomic

1 1 5.5240541 4.1546202 3.6648095
2 1 4.1052823 4.8969836 4.4626189
3 1 5.6996966 5.7614155 4.5048352
4 1 5.4417868 4.2656112 5.4826684
5 2 5.1952453 4.7676654 4.5300832
