# LAMMPS data file written by OVITO
5 atoms
2 atom types
0.0 9.7171192 xlo xhi
0.0 10.0621395 ylo yhi
0.0 9.876914 zlo zhi
-0.1036552 -0.2495802 -0.2287703 xy xz yz

Atoms # atomic

1 1 5.0972662 4.0135436 3.5631733
2 1 3.6759484 4.7346015 4.3290129
3 1 5.1895933 5.5930128 4.3718276
4 1 4.9568926 4.0677958 5.3267207
5 2 4.7273379 4.5994325 4.394773
