# LAMMPS data file written by OVITO
5 atoms
2 atom types
0.0 10.1756573 xlo xhi
0.0 9.7519751 ylo yhi
0.0 9.8146858 zlo zhi
0.2056172 -0.2239152 -0.0319129 xy xz yz

Atoms # atomic

1 1 5.4770384 3.951818 3.5319879
2 1 4.0187335 4.6728468 4.3040452
3 1 5.633307 5.4977689 4.3522782
4 1 5.3364205 4.0439401 5.2871394
5 2 5.1190581 4.5398126 4.3657818
