# LAMMPS data file written by OVITO
5 atoms
2 atom types
0.0 10.2544823 xlo xhi
0.0 10.2322006 ylo yhi
0.0 9.7883053 zlo zhi
0.0204132 0.2011217 0.1015408 xy xz yz

Atoms # atomic

1 1 5.5995584 4.1995397 3.529069
2 1 4.1366134 4.9611932 4.2910261
3 1 5.7552338 5.8329811 4.3375001
4 1 5.5355077 4.3180967 5.2810774
5 2 5.257577 4.8179283 4.354363
