                                                                                     
                             WELCOME TO ABACUS                                       
                                                                                     
               'Atomic-orbital Based Ab-initio Computation at UStc'                  
                                                                                     
                     Website: http://abacus.ustc.edu.cn/                             
                                                                                     
    Version: Parallel, in development
    Processor Number is 8
    Start Time is Mon Jul 18 03:22:08 2022
                                                                                     
 ------------------------------------------------------------------------------------

 READING GENERAL INFORMATION
                           global_out_dir = OUT.ABACUS/
                           global_in_card = INPUT
                               pseudo_dir = 
                              orbital_dir = 
                              pseudo_type = upf201
                                    DRANK = 1
                                    DSIZE = 8
                                   DCOLOR = 1
                                    GRANK = 1
                                    GSIZE = 1




 >>>>>>>>>>>>>>>>>>>>>>>>>>>>>>>>>>>>>>>>>>>>>>>>>>>>>>>>>>>>>>>>>>>>>>
 |                                                                    |
 | Reading atom information in unitcell:                              |
 | From the input file and the structure file we know the number of   |
 | different elments in this unitcell, then we list the detail        |
 | information for each element, especially the zeta and polar atomic |
 | orbital number for each element. The total atom number is counted. |
 | We calculate the nearest atom distance for each atom and show the  |
 | Cartesian and Direct coordinates for each atom. We list the file   |
 | address for atomic orbitals. The volume and the lattice vectors    |
 | in real and reciprocal space is also shown.                        |
 |                                                                    |
 <<<<<<<<<<<<<<<<<<<<<<<<<<<<<<<<<<<<<<<<<<<<<<<<<<<<<<<<<<<<<<<<<<<<<<




 READING UNITCELL INFORMATION
                                    ntype = 1
                 atom label for species 1 = Al
                  lattice constant (Bohr) = 1.88973
              lattice constant (Angstrom) = 1

 READING ATOM TYPE 1
                               atom label = Al
                      L=0, number of zeta = 1
                      L=1, number of zeta = 1
                      L=2, number of zeta = 1
             number of atom for this type = 4
                      start magnetization = FALSE
                      start magnetization = FALSE
                      start magnetization = FALSE
                      start magnetization = FALSE

                        TOTAL ATOM NUMBER = 4

 CARTESIAN COORDINATES ( UNIT = 1.88973 Bohr ).
         atom                   x                   y                   z                 mag                  vx                  vy                  vz
     tauc_Al1                   0                   0                   0                   0                   0                   0                   0
     tauc_Al2                   0               2.025               2.025                   0                   0                   0                   0
     tauc_Al3               2.025                   0               2.025                   0                   0                   0                   0
     tauc_Al4               2.025               2.025                   0                   0                   0                   0                   0


                          Volume (Bohr^3) = 448.29270461
                             Volume (A^3) = 66.4300456608

 Lattice vectors: (Cartesian coordinate: in unit of a_0)
                +4.05                  +0                  +0
                   +0               +4.05                  +0
                   +0                  +0               +4.05
 Reciprocal vectors: (Cartesian coordinate: in unit of 2 pi/a_0)
      +0.246913580247                  -0                  +0
                   -0     +0.246913580247                  -0
                   +0                  -0     +0.246913580247




 >>>>>>>>>>>>>>>>>>>>>>>>>>>>>>>>>>>>>>>>>>>>>>>>>>>>>>>>>>>>>>>>>>>>>>
 |                                                                    |
 | Reading pseudopotentials files:                                    |
 | The pseudopotential file is in UPF format. The 'NC' indicates that |
 | the type of pseudopotential is 'norm conserving'. Functional of    |
 | exchange and correlation is decided by 4 given parameters in UPF   |
 | file.  We also read in the 'core correction' if there exists.      |
 | Also we can read the valence electrons number and the maximal      |
 | angular momentum used in this pseudopotential. We also read in the |
 | trail wave function, trail atomic density and local-pseudopotential|
 | on logrithmic grid. The non-local pseudopotential projector is also|
 | read in if there is any.                                           |
 |                                                                    |
 <<<<<<<<<<<<<<<<<<<<<<<<<<<<<<<<<<<<<<<<<<<<<<<<<<<<<<<<<<<<<<<<<<<<<<




                PAO radial cut off (Bohr) = 15

 Read in pseudopotential file is ./pp_orb/Al_ONCV_PBE-1.0.upf
                     pseudopotential type = NC
          exchange-correlation functional = PBE
                 nonlocal core correction = 0
                        valence electrons = 11
                                     lmax = 1
                           number of zeta = 0
                     number of projectors = 4
                           L of projector = 0
                           L of projector = 0
                           L of projector = 1
                           L of projector = 1
     initial pseudo atomic orbital number = 0
                                   NLOCAL = 36

!!!!!!!!!!!!!!!!!!!!!!!!!!!!!!!!!!!!!!!!!!!!!!!!!!!!!!!!!!!!!!!!!!!!!!!
 Warning: number valence electrons > 3 for Al: [Ne] 3s2 3p1
 Please make sure the pseudopential file is what you need
!!!!!!!!!!!!!!!!!!!!!!!!!!!!!!!!!!!!!!!!!!!!!!!!!!!!!!!!!!!!!!!!!!!!!!!
                  




 >>>>>>>>>>>>>>>>>>>>>>>>>>>>>>>>>>>>>>>>>>>>>>>>>>>>>>>>>>>>>>>>>>>>>>
 |                                                                    |
 | Setup plane waves of charge/potential:                             |
 | Use the energy cutoff and the lattice vectors to generate the      |
 | dimensions of FFT grid. The number of FFT grid on each processor   |
 | is 'nrxx'. The number of plane wave basis in reciprocal space is   |
 | different for charege/potential and wave functions. We also set    |
 | the 'sticks' for the parallel of FFT. The number of plane waves    |
 | is 'npw' in each processor.                                        |
 <<<<<<<<<<<<<<<<<<<<<<<<<<<<<<<<<<<<<<<<<<<<<<<<<<<<<<<<<<<<<<<<<<<<<<





 SETUP THE PLANE WAVE BASIS
 energy cutoff for charge/potential (unit:Ry) = 240
          [fft grid for charge/potential] = 40, 40, 40
                      [fft grid division] = 1, 1, 1
      [big fft grid for charge/potential] = 40, 40, 40
                                     nbxx = 8000
                                     nrxx = 8000

 SETUP PLANE WAVES FOR CHARGE/POTENTIAL
                    number of plane waves = 28257
                         number of sticks = 1117

 PARALLEL PW FOR CHARGE/POTENTIAL
     PROC   COLUMNS(POT)             PW
        1            139           3533
        2            139           3533
        3            140           3532
        4            140           3532
        5            140           3532
        6            140           3532
        7            140           3532
        8            139           3531
 --------------- sum -------------------
        8           1117          28257
                            number of |g| = 290
                                  max |g| = 21.7040085353
                                  min |g| = 0.0609663161103

 SETUP THE ELECTRONS NUMBER
            electron number of element Al = 11
      total electron number of element Al = 44
                           occupied bands = 22
                                   NBANDS = 32
 DONE : SETUP UNITCELL Time : 0.292590517 (SEC)





 >>>>>>>>>>>>>>>>>>>>>>>>>>>>>>>>>>>>>>>>>>>>>>>>>>>>>>>>>>>>>>>>>>>>>>
 |                                                                    |
 | Doing symmetry analysis:                                           |
 | We calculate the norm of 3 vectors and the angles between them,    |
 | the type of Bravais lattice is given. We can judge if the unticell |
 | is a primitive cell. Finally we give the point group operation for |
 | this unitcell. We we use the point group operations to do symmetry |
 | analysis on given k-point mesh and the charge density.             |
 |                                                                    |
 <<<<<<<<<<<<<<<<<<<<<<<<<<<<<<<<<<<<<<<<<<<<<<<<<<<<<<<<<<<<<<<<<<<<<<




 LATTICE VECTORS: (CARTESIAN COORDINATE: IN UNIT OF A0)
                +4.05                  +0                  +0
                   +0               +4.05                  +0
                   +0                  +0               +4.05
                       right hand lattice = 1
                                   NORM_A = 4.05
                                   NORM_B = 4.05
                                   NORM_C = 4.05
                           ALPHA (DEGREE) = 90
                           BETA  (DEGREE) = 90
                           GAMMA (DEGREE) = 90
                             BRAVAIS TYPE = 1
                     BRAVAIS LATTICE NAME = 01. Cubic P (simple)
                                    IBRAV = 1
                                  BRAVAIS = SIMPLE CUBIC
                       LATTICE CONSTANT A = 17.6535407213
                                    ibrav = 1
                        ROTATION MATRICES = 48
              PURE POINT GROUP OPERATIONS = 48
                   SPACE GROUP OPERATIONS = 48
                              POINT GROUP = O_h
Warning : If the optimal symmetric configuration is not the input configuration, 
you have to manually change configurations, ABACUS would only calculate the input structure!
 DONE : SYMMETRY Time : 0.327802711 (SEC)





 >>>>>>>>>>>>>>>>>>>>>>>>>>>>>>>>>>>>>>>>>>>>>>>>>>>>>>>>>>>>>>>>>>>>>>
 |                                                                    |
 | Setup K-points                                                     |
 | We setup the k-points according to input parameters.               |
 | The reduced k-points are set according to symmetry operations.     |
 | We treat the spin as another set of k-points.                      |
 |                                                                    |
 <<<<<<<<<<<<<<<<<<<<<<<<<<<<<<<<<<<<<<<<<<<<<<<<<<<<<<<<<<<<<<<<<<<<<<





 SETUP K-POINTS
                                    nspin = 1
                   Input type of k points = Monkhorst-Pack(Gamma)
                                   nkstot = 125
                               nkstot_ibz = 10
      IBZ             DirectX             DirectY             DirectZ              Weight    ibz2bz
        1                   0                   0                   0               0.008         0
        2                 0.8                   0                   0               0.048         1
        3                 0.6                   0                   0               0.048         2
        4                 0.8                 0.8                   0               0.096         6
        5                 0.8                 0.6                   0               0.192         7
        6                 0.6                 0.6                   0               0.096        12
        7                 0.8                 0.8                 0.8               0.064        31
        8                 0.8                 0.8                 0.6               0.192        32
        9                 0.6                 0.6                 0.8               0.192        37
       10                 0.6                 0.6                 0.6               0.064        62
                               nkstot now = 10

  KPOINTS            DIRECT_X            DIRECT_Y            DIRECT_Z              WEIGHT
        1                   0                   0                   0               0.008
        2                 0.8                   0                   0               0.048
        3                 0.6                   0                   0               0.048
        4                 0.8                 0.8                   0               0.096
        5                 0.8                 0.6                   0               0.192
        6                 0.6                 0.6                   0               0.096
        7                 0.8                 0.8                 0.8               0.064
        8                 0.8                 0.8                 0.6               0.192
        9                 0.6                 0.6                 0.8               0.192
       10                 0.6                 0.6                 0.6               0.064

           k-point number in this process = 10
       minimum distributed K point number = 10

  KPOINTS         CARTESIAN_X         CARTESIAN_Y         CARTESIAN_Z              WEIGHT
        1                   0                   0                   0               0.016
        2      0.197530864198                   0                   0               0.096
        3      0.148148148148                   0                   0               0.096
        4      0.197530864198      0.197530864198                   0               0.192
        5      0.197530864198      0.148148148148                   0               0.384
        6      0.148148148148      0.148148148148                   0               0.192
        7      0.197530864198      0.197530864198      0.197530864198               0.128
        8      0.197530864198      0.197530864198      0.148148148148               0.384
        9      0.148148148148      0.148148148148      0.197530864198               0.384
       10      0.148148148148      0.148148148148      0.148148148148               0.128

  KPOINTS            DIRECT_X            DIRECT_Y            DIRECT_Z              WEIGHT
        1                   0                   0                   0               0.016
        2                 0.8                   0                   0               0.096
        3                 0.6                   0                   0               0.096
        4                 0.8                 0.8                   0               0.192
        5                 0.8                 0.6                   0               0.384
        6                 0.6                 0.6                   0               0.192
        7                 0.8                 0.8                 0.8               0.128
        8                 0.8                 0.8                 0.6               0.384
        9                 0.6                 0.6                 0.8               0.384
       10                 0.6                 0.6                 0.6               0.128
 DONE : INIT K-POINTS Time : 0.328541915 (SEC)





 >>>>>>>>>>>>>>>>>>>>>>>>>>>>>>>>>>>>>>>>>>>>>>>>>>>>>>>>>>>>>>>>>>>>>>
 |                                                                    |
 | Setup plane waves of wave functions:                               |
 | Use the energy cutoff and the lattice vectors to generate the      |
 | dimensions of FFT grid. The number of FFT grid on each processor   |
 | is 'nrxx'. The number of plane wave basis in reciprocal space is   |
 | different for charege/potential and wave functions. We also set    |
 | the 'sticks' for the parallel of FFT. The number of plane wave of  |
 | each k-point is 'npwk[ik]' in each processor                       |
 <<<<<<<<<<<<<<<<<<<<<<<<<<<<<<<<<<<<<<<<<<<<<<<<<<<<<<<<<<<<<<<<<<<<<<





 SETUP PLANE WAVES FOR WAVE FUNCTIONS
     energy cutoff for wavefunc (unit:Ry) = 60
            [fft grid for wave functions] = 40, 40, 40
                    number of plane waves = 5377
                         number of sticks = 373

 PARALLEL PW FOR WAVE FUNCTIONS
     PROC   COLUMNS(POT)             PW
        1             47            673
        2             46            672
        3             46            672
        4             46            672
        5             46            672
        6             46            672
        7             48            672
        8             48            672
 --------------- sum -------------------
        8            373           5377
 DONE : INIT PLANEWAVE Time : 0.459324579 (SEC)

 DONE : INIT CHARGE Time : 0.460322671 (SEC)

                                     npwx = 449

 SETUP NONLOCAL PSEUDOPOTENTIALS IN PLANE WAVE BASIS
 Al non-local projectors:
 projector 1 L=0
 projector 2 L=0
 projector 3 L=1
 projector 4 L=1
      TOTAL NUMBER OF NONLOCAL PROJECTORS = 32
 DONE : LOCAL POTENTIAL Time : 0.465384451 (SEC)


 Init Non-Local PseudoPotential table : 
 Init Non-Local-Pseudopotential done.
 DONE : NON-LOCAL POTENTIAL Time : 0.488719832 (SEC)

                                 init_chg = atomic
 DONE : INIT POTENTIAL Time : 0.541586 (SEC)


 Make real space PAO into reciprocal space.
       max mesh points in Pseudopotential = 601
     dq(describe PAO in reciprocal space) = 0.01
                                    max q = 934

 number of pseudo atomic orbitals for Al is 0
 DONE : INIT BASIS Time : 0.541676 (SEC)


 -------------------------------------------
 RELAX CELL : 1
 RELAX IONS : 1 (in total: 1)
 -------------------------------------------

 PW ALGORITHM --------------- ION=   1  ELEC=   1--------------------------------
 Notice: Threshold on eigenvalues was too large.
 hsover_error=0.44 > DRHO=0.0679572
 Origin diag_ethr = 0.01
 New    diag_ethr = 0.000154448

 Density error is 0.0683985733138
                          Error Threshold = 0.00015444808618

       Energy                       Rydberg                            eV
   E_KohnSham                 -553.65424756                -7532.85248872
     E_Harris                -553.678362532                -7533.18058974
      E_Fermi               +0.818977700612                +11.1427632633

 PW ALGORITHM --------------- ION=   1  ELEC=   2--------------------------------

 Density error is 0.02870153646
                          Error Threshold = 0.000155451302986

       Energy                       Rydberg                            eV
   E_KohnSham                -553.637657948                -7532.62677546
     E_Harris                -553.656390014                -7532.88163831
      E_Fermi               +0.814451912331                +11.0811867547

 PW ALGORITHM --------------- ION=   1  ELEC=   3--------------------------------

 Density error is 0.000531775901216
                          Error Threshold = 6.52307646819e-05

       Energy                       Rydberg                            eV
   E_KohnSham                -553.643427489                -7532.70527411
     E_Harris                -553.643120448                 -7532.7010966
      E_Fermi               +0.807501899262                +10.9866269758

 PW ALGORITHM --------------- ION=   1  ELEC=   4--------------------------------

 Density error is 0.000921227402409
                          Error Threshold = 1.20858159367e-06

       Energy                       Rydberg                            eV
   E_KohnSham                -553.643375527                -7532.70456712
     E_Harris                -553.643905675                -7532.71178015
      E_Fermi               +0.808549846622                +11.0008850311

 PW ALGORITHM --------------- ION=   1  ELEC=   5--------------------------------

 Density error is 9.21067878399e-05
                          Error Threshold = 1.20858159367e-06

       Energy                       Rydberg                            eV
   E_KohnSham                -553.643356263                -7532.70430503
     E_Harris                -553.643427634                -7532.70527608
      E_Fermi               +0.807612652709                +10.9881338537

 PW ALGORITHM --------------- ION=   1  ELEC=   6--------------------------------

 Density error is 2.83720147185e-05
                          Error Threshold = 2.09333608727e-07

       Energy                       Rydberg                            eV
   E_KohnSham                -553.643400551                -7532.70490759
     E_Harris                -553.643407801                -7532.70500623
      E_Fermi               +0.807337900593                +10.9843956594

 PW ALGORITHM --------------- ION=   1  ELEC=   7--------------------------------

 Density error is 1.63954491053e-05
                          Error Threshold = 6.4481851633e-08

       Energy                       Rydberg                            eV
   E_KohnSham                -553.643395792                -7532.70484284
     E_Harris                -553.643400987                -7532.70491352
      E_Fermi               +0.807355464691                +10.9846346312

 PW ALGORITHM --------------- ION=   1  ELEC=   8--------------------------------

 Density error is 6.84974201516e-06
                          Error Threshold = 3.72623843303e-08

       Energy                       Rydberg                            eV
   E_KohnSham                -553.643393705                -7532.70481445
     E_Harris                -553.643396229                -7532.70484879
      E_Fermi               +0.807360166361                +10.9846986007

 PW ALGORITHM --------------- ION=   1  ELEC=   9--------------------------------

 Density error is 2.07664449579e-06
                          Error Threshold = 1.5567595489e-08

       Energy                       Rydberg                            eV
   E_KohnSham                -553.643392884                -7532.70480327
     E_Harris                -553.643394087                -7532.70481965
      E_Fermi               +0.807354799406                +10.9846255796

 PW ALGORITHM --------------- ION=   1  ELEC=  10--------------------------------

 Density error is 5.29106854224e-08
                          Error Threshold = 4.71964658134e-09

       Energy                       Rydberg                            eV
   E_KohnSham                 -553.64339336                -7532.70480976
     E_Harris                -553.643393388                -7532.70481013
       E_band                -144.145826805                -1961.20458748
   E_one_elec                -339.478432905                -4618.84103562
    E_Hartree                +138.381353028                +1882.77489814
         E_xc                -62.5998482205                -851.714629734
      E_Ewald                -289.946417172                -3944.92338823
      E_demet            -4.80908202087e-05            -0.000654309176332
      E_descf                            +0                            +0
     E_efield                            +0                            +0
        E_exx                            +0                            +0
      E_Fermi               +0.807363765776                +10.9847475733

 charge density convergence is achieved
 final etot is -7532.70480976 eV

 STATE ENERGY(eV) AND OCCUPATIONS    NSPIN == 1
 1/10 kpoint (Cartesian) = 0 0 0 (449 pws)
       1       -92.6013      0.0160000
       2       -92.5968      0.0160000
       3       -92.5968      0.0160000
       4       -92.5965      0.0160000
       5       -54.0932      0.0160000
       6       -54.0932      0.0160000
       7       -54.0932      0.0160000
       8       -54.0811      0.0160000
       9       -54.0811      0.0160000
      10       -54.0811      0.0160000
      11       -54.0809      0.0160000
      12       -54.0809      0.0160000
      13       -54.0809      0.0160000
      14       -54.0725      0.0160000
      15       -54.0725      0.0160000
      16       -54.0725      0.0160000
      17      -0.226575      0.0160000
      18        7.95348      0.0160000
      19        7.95348      0.0160000
      20        7.95348      0.0160000
      21        9.28061      0.0160000
      22        9.28061      0.0160000
      23        9.28064      0.0160000
      24        16.1916        0.00000
      25        16.1916        0.00000
      26        16.1916        0.00000
      27        16.4272        0.00000
      28        16.4272        0.00000
      29        16.4272        0.00000
      30        16.4273        0.00000
      31        16.4273        0.00000
      32        16.4273        0.00000

 2/10 kpoint (Cartesian) = 0.197531 0.00000 0.00000 (439 pws)
       1       -92.6005      0.0960000
       2       -92.5968      0.0960000
       3       -92.5959      0.0960000
       4       -92.5957      0.0960000
       5       -54.0920      0.0960000
       6       -54.0920      0.0960000
       7       -54.0912      0.0960000
       8       -54.0821      0.0960000
       9       -54.0821      0.0960000
      10       -54.0811      0.0960000
      11       -54.0809      0.0960000
      12       -54.0802      0.0960000
      13       -54.0802      0.0960000
      14       -54.0745      0.0960000
      15       -54.0733      0.0960000
      16       -54.0733      0.0960000
      17       0.134448      0.0960000
      18        5.42624      0.0960000
      19        8.28540      0.0960000
      20        8.28540      0.0960000
      21        9.62778      0.0960000
      22        9.62780      0.0960000
      23        12.4378        0.00000
      24        13.2891        0.00000
      25        13.2891        0.00000
      26        14.7090        0.00000
      27        14.7090        0.00000
      28        16.5483        0.00000
      29        16.7376        0.00000
      30        16.7376        0.00000
      31        20.0024        0.00000
      32        20.0024        0.00000

 3/10 kpoint (Cartesian) = 0.148148 0.00000 0.00000 (438 pws)
       1       -92.5992      0.0960000
       2       -92.5963      0.0960000
       3       -92.5962      0.0960000
       4       -92.5960      0.0960000
       5       -54.0890      0.0960000
       6       -54.0890      0.0960000
       7       -54.0861      0.0960000
       8       -54.0852      0.0960000
       9       -54.0852      0.0960000
      10       -54.0811      0.0960000
      11       -54.0810      0.0960000
      12       -54.0797      0.0960000
      13       -54.0780      0.0960000
      14       -54.0780      0.0960000
      15       -54.0754      0.0960000
      16       -54.0754      0.0960000
      17        1.21176      0.0960000
      18        2.98795      0.0960000
      19        9.28259      0.0960000
      20        9.28259      0.0960000
      21        10.6167      0.0960000
      22        10.6167      0.0960000
      23        10.9490      0.0929676
      24        10.9490      0.0929676
      25        12.5422        0.00000
      26        12.5422        0.00000
      27        16.7595        0.00000
      28        17.6139        0.00000
      29        17.6695        0.00000
      30        17.6695        0.00000
      31        19.2227        0.00000
      32        19.2227        0.00000

 4/10 kpoint (Cartesian) = 0.197531 0.197531 0.00000 (440 pws)
       1       -92.6013       0.192000
       2       -92.5967       0.192000
       3       -92.5966       0.192000
       4       -92.5951       0.192000
       5       -54.0909       0.192000
       6       -54.0907       0.192000
       7       -54.0907       0.192000
       8       -54.0841       0.192000
       9       -54.0814       0.192000
      10       -54.0812       0.192000
      11       -54.0800       0.192000
      12       -54.0799       0.192000
      13       -54.0798       0.192000
      14       -54.0772       0.192000
      15       -54.0742       0.192000
      16       -54.0730       0.192000
      17       0.494477       0.192000
      18        5.77252       0.192000
      19        5.77252       0.192000
      20        8.61754       0.192000
      21        9.93480       0.192000
      22        10.9534       0.182061
      23        12.7555        0.00000
      24        12.7555        0.00000
      25        13.6237        0.00000
      26        13.6238        0.00000
      27        15.0496        0.00000
      28        15.0496        0.00000
      29        17.0522        0.00000
      30        18.6164        0.00000
      31        18.6597        0.00000
      32        19.6761        0.00000

 5/10 kpoint (Cartesian) = 0.197531 0.148148 0.00000 (440 pws)
       1       -92.5987       0.384000
       2       -92.5973       0.384000
       3       -92.5966       0.384000
       4       -92.5964       0.384000
       5       -54.0891       0.384000
       6       -54.0879       0.384000
       7       -54.0870       0.384000
       8       -54.0868       0.384000
       9       -54.0843       0.384000
      10       -54.0820       0.384000
      11       -54.0795       0.384000
      12       -54.0793       0.384000
      13       -54.0791       0.384000
      14       -54.0774       0.384000
      15       -54.0764       0.384000
      16       -54.0746       0.384000
      17        1.56898       0.384000
      18        3.34066       0.384000
      19        6.80637       0.384000
      20        8.50648       0.384000
      21        9.61537       0.384000
      22        11.0673    3.41321e-06
      23        11.2827        0.00000
      24        12.6821        0.00000
      25        13.9147        0.00000
      26        14.6270        0.00000
      27        15.4746        0.00000
      28        15.9292        0.00000
      29        16.2955        0.00000
      30        17.1543        0.00000
      31        17.5621        0.00000
      32        21.3151        0.00000

 6/10 kpoint (Cartesian) = 0.148148 0.148148 0.00000 (435 pws)
       1       -92.5973       0.192000
       2       -92.5972       0.192000
       3       -92.5970       0.192000
       4       -92.5963       0.192000
       5       -54.0884       0.192000
       6       -54.0883       0.192000
       7       -54.0882       0.192000
       8       -54.0857       0.192000
       9       -54.0852       0.192000
      10       -54.0819       0.192000
      11       -54.0817       0.192000
      12       -54.0788       0.192000
      13       -54.0773       0.192000
      14       -54.0767       0.192000
      15       -54.0766       0.192000
      16       -54.0747       0.192000
      17        2.63524       0.192000
      18        4.39377       0.192000
      19        4.39377       0.192000
      20        6.13074       0.192000
      21        10.6151       0.192000
      22        12.0959        0.00000
      23        12.2846        0.00000
      24        12.2846        0.00000
      25        13.7664        0.00000
      26        13.7664        0.00000
      27        13.9559        0.00000
      28        15.4139        0.00000
      29        18.0757        0.00000
      30        18.0757        0.00000
      31        18.9308        0.00000
      32        20.8149        0.00000

 7/10 kpoint (Cartesian) = 0.197531 0.197531 0.197531 (439 pws)
       1       -92.5996       0.128000
       2       -92.5963       0.128000
       3       -92.5963       0.128000
       4       -92.5961       0.128000
       5       -54.0906       0.128000
       6       -54.0905       0.128000
       7       -54.0905       0.128000
       8       -54.0823       0.128000
       9       -54.0823       0.128000
      10       -54.0820       0.128000
      11       -54.0800       0.128000
      12       -54.0793       0.128000
      13       -54.0792       0.128000
      14       -54.0792       0.128000
      15       -54.0737       0.128000
      16       -54.0737       0.128000
      17       0.853575       0.128000
      18        6.11790       0.128000
      19        6.11790       0.128000
      20        6.11791       0.128000
      21        11.2087        0.00000
      22        11.2087        0.00000
      23        11.2087        0.00000
      24        13.1436        0.00000
      25        13.1436        0.00000
      26        13.1436        0.00000
      27        16.2080        0.00000
      28        17.3634        0.00000
      29        17.3634        0.00000
      30        17.3634        0.00000
      31        19.0006        0.00000
      32        19.0006        0.00000

 8/10 kpoint (Cartesian) = 0.197531 0.197531 0.148148 (439 pws)
       1       -92.5981       0.384000
       2       -92.5978       0.384000
       3       -92.5958       0.384000
       4       -92.5956       0.384000
       5       -54.0904       0.384000
       6       -54.0903       0.384000
       7       -54.0886       0.384000
       8       -54.0846       0.384000
       9       -54.0832       0.384000
      10       -54.0830       0.384000
      11       -54.0786       0.384000
      12       -54.0785       0.384000
      13       -54.0783       0.384000
      14       -54.0775       0.384000
      15       -54.0754       0.384000
      16       -54.0750       0.384000
      17        1.92529       0.384000
      18        3.69256       0.384000
      19        7.14599       0.384000
      20        7.14599       0.384000
      21        8.87397       0.384000
      22        8.87399       0.384000
      23        12.2312        0.00000
      24        13.9058        0.00000
      25        14.1168        0.00000
      26        14.1168        0.00000
      27        15.8173        0.00000
      28        15.8174        0.00000
      29        17.4193        0.00000
      30        18.2981        0.00000
      31        19.8564        0.00000
      32        19.9970        0.00000

 9/10 kpoint (Cartesian) = 0.148148 0.148148 0.197531 (435 pws)
       1       -92.5976       0.384000
       2       -92.5968       0.384000
       3       -92.5968       0.384000
       4       -92.5965       0.384000
       5       -54.0914       0.384000
       6       -54.0908       0.384000
       7       -54.0907       0.384000
       8       -54.0885       0.384000
       9       -54.0812       0.384000
      10       -54.0795       0.384000
      11       -54.0793       0.384000
      12       -54.0770       0.384000
      13       -54.0769       0.384000
      14       -54.0767       0.384000
      15       -54.0765       0.384000
      16       -54.0749       0.384000
      17        2.98893       0.384000
      18        4.74321       0.384000
      19        4.74322       0.384000
      20        6.47312       0.384000
      21        8.19455       0.384000
      22        9.89099       0.384000
      23        9.89100       0.384000
      24        11.5805        0.00000
      25        15.1341        0.00000
      26        16.7367        0.00000
      27        16.7367        0.00000
      28        18.3379        0.00000
      29        18.3989        0.00000
      30        18.3989        0.00000
      31        19.2442        0.00000
      32        21.1206        0.00000

 10/10 kpoint (Cartesian) = 0.148148 0.148148 0.148148 (440 pws)
       1       -92.5971       0.128000
       2       -92.5971       0.128000
       3       -92.5969       0.128000
       4       -92.5964       0.128000
       5       -54.0934       0.128000
       6       -54.0933       0.128000
       7       -54.0933       0.128000
       8       -54.0921       0.128000
       9       -54.0772       0.128000
      10       -54.0772       0.128000
      11       -54.0770       0.128000
      12       -54.0765       0.128000
      13       -54.0763       0.128000
      14       -54.0763       0.128000
      15       -54.0755       0.128000
      16       -54.0755       0.128000
      17        4.04494       0.128000
      18        5.78437       0.128000
      19        5.78437       0.128000
      20        5.78437       0.128000
      21        7.52431       0.128000
      22        7.52431       0.128000
      23        7.52434       0.128000
      24        9.23050       0.128000
      25        19.3067        0.00000
      26        19.3067        0.00000
      27        19.3067        0.00000
      28        20.1856        0.00000
      29        20.1856        0.00000
      30        20.1856        0.00000
      31        21.7517        0.00000
      32        21.7517        0.00000




 ><><><><><><><><><><><><><><><><><><><><><><

    TOTAL-FORCE (eV/Angstrom)

 ><><><><><><><><><><><><><><><><><><><><><><

     atom              x              y              z
      Al1              0              0              0
      Al2              0              0              0
      Al3              0              0              0
      Al4              0              0              0


 ><><><><><><><><><><><><><><><><><><><><><><

 TOTAL-STRESS (KBAR)

 ><><><><><><><><><><><><><><><><><><><><><><

      -19.246847      +0.000000      +0.000000
       +0.000000     -19.246847      +0.000000
       +0.000000      +0.000000     -19.246847
 TOTAL-PRESSURE: -19.246847 KBAR
 largest force is 0, no movement is possible.
 it may converged, otherwise no movement of atom is allowed.
 end of geometry optimization
                                    istep = +1
                         update iteration = +0

 CARTESIAN COORDINATES ( UNIT = +1.889726 Bohr ).
         atom                   x                   y                   z                 mag                  vx                  vy                  vz
     tauc_Al1     +0.000000000000     +0.000000000000     +0.000000000000     +0.000000000000     +0.000000000000     +0.000000000000     +0.000000000000
     tauc_Al2     +0.000000000000     +2.025000000000     +2.025000000000     +0.000000000000     +0.000000000000     +0.000000000000     +0.000000000000
     tauc_Al3     +2.025000000000     +0.000000000000     +2.025000000000     +0.000000000000     +0.000000000000     +0.000000000000     +0.000000000000
     tauc_Al4     +2.025000000000     +2.025000000000     +0.000000000000     +0.000000000000     +0.000000000000     +0.000000000000     +0.000000000000


 Lattice relaxation is not converged yet (threshold is +0.100000000000)

                          Volume (Bohr^3) = +447.278931546957
                            Volume (A^3)) = +66.279820171550

 Lattice vectors: (Cartesian coordinate: in unit of a_0)
      +4.046944793950     +0.000000000000     +0.000000000000
      +0.000000000000     +4.046944793950     +0.000000000000
      +0.000000000000     +0.000000000000     +4.046944793950
 Reciprocal vectors: (Cartesian coordinate: in unit of 2 pi/a_0)
      +0.247099985524     -0.000000000000     -0.000000000000
      -0.000000000000     +0.247099985524     +0.000000000000
      -0.000000000000     +0.000000000000     +0.247099985524
 DONE : SETUP UNITCELL Time : 5.371214005000 (SEC)





 >>>>>>>>>>>>>>>>>>>>>>>>>>>>>>>>>>>>>>>>>>>>>>>>>>>>>>>>>>>>>>>>>>>>>>
 |                                                                    |
 | Doing symmetry analysis:                                           |
 | We calculate the norm of 3 vectors and the angles between them,    |
 | the type of Bravais lattice is given. We can judge if the unticell |
 | is a primitive cell. Finally we give the point group operation for |
 | this unitcell. We we use the point group operations to do symmetry |
 | analysis on given k-point mesh and the charge density.             |
 |                                                                    |
 <<<<<<<<<<<<<<<<<<<<<<<<<<<<<<<<<<<<<<<<<<<<<<<<<<<<<<<<<<<<<<<<<<<<<<




 LATTICE VECTORS: (CARTESIAN COORDINATE: IN UNIT OF A0)
      +4.046944793950     +0.000000000000     +0.000000000000
      +0.000000000000     +4.046944793950     +0.000000000000
      +0.000000000000     +0.000000000000     +4.046944793950
                       right hand lattice = 1
                             BRAVAIS TYPE = 1
                     BRAVAIS LATTICE NAME = 01. Cubic P (simple)
                                    IBRAV = 1
                                  BRAVAIS = SIMPLE CUBIC
                       LATTICE CONSTANT A = 17.640223386915
                                    ibrav = 1
                        ROTATION MATRICES = 48
              PURE POINT GROUP OPERATIONS = 48
                   SPACE GROUP OPERATIONS = 48
                              POINT GROUP = O_h
Warning : If the optimal symmetric configuration is not the input configuration, 
you have to manually change configurations, ABACUS would only calculate the input structure!
 DONE : SYMMETRY Time : 5.407962183000 (SEC)


 SETUP K-POINTS
                                    nspin = 1

  KPOINTS            DIRECT_X            DIRECT_Y            DIRECT_Z              WEIGHT
        1      0.000000000000      0.000000000000      0.000000000000      0.016000000000
        2      0.800000000000      0.000000000000      0.000000000000      0.096000000000
        3      0.600000000000      0.000000000000      0.000000000000      0.096000000000
        4      0.800000000000      0.800000000000      0.000000000000      0.192000000000
        5      0.800000000000      0.600000000000      0.000000000000      0.384000000000
        6      0.600000000000      0.600000000000      0.000000000000      0.192000000000
        7      0.800000000000      0.800000000000      0.800000000000      0.128000000000
        8      0.800000000000      0.800000000000      0.600000000000      0.384000000000
        9      0.600000000000      0.600000000000      0.800000000000      0.384000000000
       10      0.600000000000      0.600000000000      0.600000000000      0.128000000000

           k-point number in this process = 10
       minimum distributed K point number = 10

  KPOINTS         CARTESIAN_X         CARTESIAN_Y         CARTESIAN_Z              WEIGHT
        1      0.000000000000      0.000000000000      0.000000000000      0.016000000000
        2      0.197679988419      0.000000000000      0.000000000000      0.096000000000
        3      0.148259991314      0.000000000000      0.000000000000      0.096000000000
        4      0.197679988419      0.197679988419      0.000000000000      0.192000000000
        5      0.197679988419      0.148259991314      0.000000000000      0.384000000000
        6      0.148259991314      0.148259991314      0.000000000000      0.192000000000
        7      0.197679988419      0.197679988419      0.197679988419      0.128000000000
        8      0.197679988419      0.197679988419      0.148259991314      0.384000000000
        9      0.148259991314      0.148259991314      0.197679988419      0.384000000000
       10      0.148259991314      0.148259991314      0.148259991314      0.128000000000

  KPOINTS            DIRECT_X            DIRECT_Y            DIRECT_Z              WEIGHT
        1      0.000000000000      0.000000000000      0.000000000000      0.016000000000
        2      0.800000000000      0.000000000000      0.000000000000      0.096000000000
        3      0.600000000000      0.000000000000      0.000000000000      0.096000000000
        4      0.800000000000      0.800000000000      0.000000000000      0.192000000000
        5      0.800000000000      0.600000000000      0.000000000000      0.384000000000
        6      0.600000000000      0.600000000000      0.000000000000      0.192000000000
        7      0.800000000000      0.800000000000      0.800000000000      0.128000000000
        8      0.800000000000      0.800000000000      0.600000000000      0.384000000000
        9      0.600000000000      0.600000000000      0.800000000000      0.384000000000
       10      0.600000000000      0.600000000000      0.600000000000      0.128000000000
 DONE : INIT K-POINTS Time : 5.408167622000 (SEC)

                                     npwx = 449

 Make real space PAO into reciprocal space.
       max mesh points in Pseudopotential = 601
     dq(describe PAO in reciprocal space) = 0.010000000000
                                    max q = 934

 number of pseudo atomic orbitals for Al is 0
 Setup the Vl+Vh+Vxc according to new structure factor and new charge.
 DONE : LOCAL POTENTIAL Time : 5.412933268000 (SEC)


 Init Non-Local PseudoPotential table : 
 Init Non-Local-Pseudopotential done.
 DONE : NON-LOCAL POTENTIAL Time : 5.435075289000 (SEC)


 -------------------------------------------
 RELAX CELL : 2
 RELAX IONS : 1 (in total: 2)
 -------------------------------------------

 PW ALGORITHM --------------- ION=   2  ELEC=   1--------------------------------
 Notice: Threshold on eigenvalues was too large.
 hsover_error=0.440000 > DRHO=0.000197
 Origin diag_ethr = 0.010000
 New    diag_ethr = 0.000000

 Density error is 0.000231062724
                          Error Threshold = 0.000000447956

       Energy                       Rydberg                            eV
   E_KohnSham             -553.643576316872            -7532.707299007317
     E_Harris             -553.643668627689            -7532.708554960415
      E_Fermi               +0.809902930466              +11.019294681234

 PW ALGORITHM --------------- ION=   2  ELEC=   2--------------------------------

 Density error is 0.000102642157
                          Error Threshold = 0.000000525143

       Energy                       Rydberg                            eV
   E_KohnSham             -553.643499261907            -7532.706250620736
     E_Harris             -553.643578598362            -7532.707330048583
      E_Fermi               +0.809795538320              +11.017833536126

 PW ALGORITHM --------------- ION=   2  ELEC=   3--------------------------------

 Density error is 0.000006520645
                          Error Threshold = 0.000000233278

       Energy                       Rydberg                            eV
   E_KohnSham             -553.643524362057            -7532.706592125786
     E_Harris             -553.643528014175            -7532.706641815408
      E_Fermi               +0.809586849214              +11.014994175182

 PW ALGORITHM --------------- ION=   2  ELEC=   4--------------------------------

 Density error is 0.000001473223
                          Error Threshold = 0.000000014820

       Energy                       Rydberg                            eV
   E_KohnSham             -553.643523632148            -7532.706582194874
     E_Harris             -553.643524803283            -7532.706598128978
      E_Fermi               +0.809616055000              +11.015391540275

 PW ALGORITHM --------------- ION=   2  ELEC=   5--------------------------------

 Density error is 0.000000141573
                          Error Threshold = 0.000000003348

       Energy                       Rydberg                            eV
   E_KohnSham             -553.643524388665            -7532.706592487810
     E_Harris             -553.643524290789            -7532.706591156134
      E_Fermi               +0.809649103912              +11.015841193795

 PW ALGORITHM --------------- ION=   2  ELEC=   6--------------------------------

 Density error is 0.000000283779
                          Error Threshold = 0.000000000322

       Energy                       Rydberg                            eV
   E_KohnSham             -553.643524217173            -7532.706590154536
     E_Harris             -553.643524397051            -7532.706592601909
      E_Fermi               +0.809657462373              +11.015954916488

 PW ALGORITHM --------------- ION=   2  ELEC=   7--------------------------------

 Density error is 0.000000038415
                          Error Threshold = 0.000000000322

       Energy                       Rydberg                            eV
   E_KohnSham             -553.643524198925            -7532.706589906272
     E_Harris             -553.643524228907            -7532.706590314194
       E_band             -144.044056302246            -1959.819928743353
   E_one_elec             -339.133886741866            -4614.153244576039
    E_Hartree             +138.260366505801            +1881.128792047248
         E_xc              -62.604646936190             -851.779919610433
      E_Ewald             -290.165309717100            -3947.901574087331
      E_demet               -0.000047309570               -0.000643679718
      E_descf               +0.000000000000               +0.000000000000
     E_efield               +0.000000000000               +0.000000000000
        E_exx               +0.000000000000               +0.000000000000
      E_Fermi               +0.809648874909              +11.015838078051

 charge density convergence is achieved
 final etot is -7532.706589906272 eV

 STATE ENERGY(eV) AND OCCUPATIONS    NSPIN == 1
 1/10 kpoint (Cartesian) = 0.00000 0.00000 0.00000 (449 pws)
       1     -92.565798       0.016000
       2     -92.561217       0.016000
       3     -92.561212       0.016000
       4     -92.561212       0.016000
       5     -54.059388       0.016000
       6     -54.059388       0.016000
       7     -54.059388       0.016000
       8     -54.047056       0.016000
       9     -54.047056       0.016000
      10     -54.047056       0.016000
      11     -54.047052       0.016000
      12     -54.047052       0.016000
      13     -54.047052       0.016000
      14     -54.038502       0.016000
      15     -54.038502       0.016000
      16     -54.038502       0.016000
      17      -0.212005       0.016000
      18       7.978134       0.016000
      19       7.978134       0.016000
      20       7.978134       0.016000
      21       9.310593       0.016000
      22       9.310593       0.016000
      23       9.310593       0.016000
      24      16.222494       0.000000
      25      16.222494       0.000000
      26      16.222494       0.000000
      27      16.467973       0.000000
      28      16.467973       0.000000
      29      16.467973       0.000000
      30      16.467974       0.000000
      31      16.467974       0.000000
      32      16.467974       0.000000

 2/10 kpoint (Cartesian) = 0.197680 0.000000 0.000000 (439 pws)
       1     -92.565081       0.096000
       2     -92.561328       0.096000
       3     -92.560375       0.096000
       4     -92.560372       0.096000
       5     -54.058209       0.096000
       6     -54.058209       0.096000
       7     -54.057425       0.096000
       8     -54.048230       0.096000
       9     -54.048230       0.096000
      10     -54.047082       0.096000
      11     -54.047078       0.096000
      12     -54.046236       0.096000
      13     -54.046236       0.096000
      14     -54.040528       0.096000
      15     -54.039318       0.096000
      16     -54.039318       0.096000
      17       0.149563       0.096000
      18       5.448830       0.096000
      19       8.310478       0.096000
      20       8.310478       0.096000
      21       9.658026       0.096000
      22       9.658026       0.096000
      23      12.470602       0.000000
      24      13.320602       0.000000
      25      13.320602       0.000000
      26      14.749187       0.000000
      27      14.749188       0.000000
      28      16.579702       0.000000
      29      16.778657       0.000000
      30      16.778657       0.000000
      31      20.043511       0.000000
      32      20.043511       0.000000

 3/10 kpoint (Cartesian) = 0.148260 0.000000 0.000000 (438 pws)
       1     -92.563701       0.096000
       2     -92.560861       0.096000
       3     -92.560629       0.096000
       4     -92.560625       0.096000
       5     -54.055123       0.096000
       6     -54.055123       0.096000
       7     -54.052253       0.096000
       8     -54.051312       0.096000
       9     -54.051312       0.096000
      10     -54.047124       0.096000
      11     -54.047120       0.096000
      12     -54.045799       0.096000
      13     -54.044097       0.096000
      14     -54.044097       0.096000
      15     -54.041454       0.096000
      16     -54.041454       0.096000
      17       1.228474       0.096000
      18       3.007218       0.096000
      19       9.308927       0.096000
      20       9.308927       0.096000
      21      10.646404       0.096000
      22      10.646404       0.096000
      23      10.977479       0.093782
      24      10.977479       0.093782
      25      12.581859       0.000000
      26      12.581860       0.000000
      27      16.797814       0.000000
      28      17.646940       0.000000
      29      17.711572       0.000000
      30      17.711572       0.000000
      31      19.266526       0.000000
      32      19.266526       0.000000

 4/10 kpoint (Cartesian) = 0.197680 0.197680 0.000000 (440 pws)
       1     -92.565791       0.192000
       2     -92.561179       0.192000
       3     -92.561175       0.192000
       4     -92.559614       0.192000
       5     -54.057064       0.192000
       6     -54.056870       0.192000
       7     -54.056868       0.192000
       8     -54.050190       0.192000
       9     -54.047380       0.192000
      10     -54.047376       0.192000
      11     -54.046020       0.192000
      12     -54.046018       0.192000
      13     -54.045942       0.192000
      14     -54.043280       0.192000
      15     -54.040168       0.192000
      16     -54.039024       0.192000
      17       0.510130       0.192000
      18       5.795563       0.192000
      19       5.795563       0.192000
      20       8.643041       0.192000
      21       9.963876       0.192000
      22      10.985961       0.180433
      23      12.788078       0.000000
      24      12.788079       0.000000
      25      13.655739       0.000000
      26      13.655740       0.000000
      27      15.090703       0.000000
      28      15.090703       0.000000
      29      17.093696       0.000000
      30      18.655436       0.000000
      31      18.701257       0.000000
      32      19.721249       0.000000

 5/10 kpoint (Cartesian) = 0.197680 0.148260 0.000000 (440 pws)
       1     -92.563232       0.384000
       2     -92.561869       0.384000
       3     -92.561070       0.384000
       4     -92.561013       0.384000
       5     -54.055273       0.384000
       6     -54.054069       0.384000
       7     -54.053176       0.384000
       8     -54.052887       0.384000
       9     -54.050369       0.384000
      10     -54.048138       0.384000
      11     -54.045566       0.384000
      12     -54.045371       0.384000
      13     -54.045148       0.384000
      14     -54.043398       0.384000
      15     -54.042394       0.384000
      16     -54.040573       0.384000
      17       1.586211       0.384000
      18       3.360424       0.384000
      19       6.830733       0.384000
      20       8.532695       0.384000
      21       9.642140       0.384000
      22      11.101037       0.000002
      23      11.311657       0.000000
      24      12.715215       0.000000
      25      13.954150       0.000000
      26      14.660446       0.000000
      27      15.513779       0.000000
      28      15.967958       0.000000
      29      16.331282       0.000000
      30      17.196182       0.000000
      31      17.604550       0.000000
      32      21.357893       0.000000

 6/10 kpoint (Cartesian) = 0.148260 0.148260 0.000000 (435 pws)
       1     -92.561719       0.192000
       2     -92.561716       0.192000
       3     -92.561568       0.192000
       4     -92.560881       0.192000
       5     -54.054451       0.192000
       6     -54.054451       0.192000
       7     -54.054446       0.192000
       8     -54.051817       0.192000
       9     -54.051310       0.192000
      10     -54.047905       0.192000
      11     -54.047901       0.192000
      12     -54.044857       0.192000
      13     -54.043326       0.192000
      14     -54.042687       0.192000
      15     -54.042683       0.192000
      16     -54.040684       0.192000
      17       2.654010       0.192000
      18       4.415000       0.192000
      19       4.415000       0.192000
      20       6.154269       0.192000
      21      10.643118       0.192000
      22      12.131047       0.000000
      23      12.314868       0.000000
      24      12.314869       0.000000
      25      13.803692       0.000000
      26      13.803692       0.000000
      27      13.988405       0.000000
      28      15.453654       0.000000
      29      18.118125       0.000000
      30      18.118125       0.000000
      31      18.974590       0.000000
      32      20.860199       0.000000

 7/10 kpoint (Cartesian) = 0.197680 0.197680 0.197680 (439 pws)
       1     -92.564121       0.128000
       2     -92.560794       0.128000
       3     -92.560788       0.128000
       4     -92.560788       0.128000
       5     -54.056734       0.128000
       6     -54.056734       0.128000
       7     -54.056731       0.128000
       8     -54.048280       0.128000
       9     -54.048274       0.128000
      10     -54.048274       0.128000
      11     -54.046066       0.128000
      12     -54.045281       0.128000
      13     -54.045281       0.128000
      14     -54.045278       0.128000
      15     -54.039683       0.128000
      16     -54.039683       0.128000
      17       0.869761       0.128000
      18       6.141385       0.128000
      19       6.141385       0.128000
      20       6.141385       0.128000
      21      11.238751       0.000000
      22      11.238752       0.000000
      23      11.238752       0.000000
      24      13.178327       0.000000
      25      13.178327       0.000000
      26      13.178327       0.000000
      27      16.245405       0.000000
      28      17.405243       0.000000
      29      17.405243       0.000000
      30      17.405244       0.000000
      31      19.042727       0.000000
      32      19.042727       0.000000

 8/10 kpoint (Cartesian) = 0.197680 0.197680 0.148260 (439 pws)
       1     -92.562634       0.384000
       2     -92.562306       0.384000
       3     -92.560259       0.384000
       4     -92.560255       0.384000
       5     -54.056504       0.384000
       6     -54.056502       0.384000
       7     -54.054720       0.384000
       8     -54.050743       0.384000
       9     -54.049186       0.384000
      10     -54.049181       0.384000
      11     -54.044640       0.384000
      12     -54.044638       0.384000
      13     -54.044381       0.384000
      14     -54.043549       0.384000
      15     -54.041411       0.384000
      16     -54.041002       0.384000
      17       1.943047       0.384000
      18       3.712822       0.384000
      19       7.170608       0.384000
      20       7.170608       0.384000
      21       8.901673       0.384000
      22       8.901673       0.384000
      23      12.263127       0.000000
      24      13.940088       0.000000
      25      14.151888       0.000000
      26      14.151888       0.000000
      27      15.857611       0.000000
      28      15.857612       0.000000
      29      17.458968       0.000000
      30      18.340958       0.000000
      31      19.901058       0.000000
      32      20.041001       0.000000

 9/10 kpoint (Cartesian) = 0.148260 0.148260 0.197680 (435 pws)
       1     -92.562144       0.384000
       2     -92.561289       0.384000
       3     -92.561285       0.384000
       4     -92.561161       0.384000
       5     -54.057620       0.384000
       6     -54.056927       0.384000
       7     -54.056924       0.384000
       8     -54.054650       0.384000
       9     -54.047297       0.384000
      10     -54.045474       0.384000
      11     -54.045471       0.384000
      12     -54.043072       0.384000
      13     -54.042915       0.384000
      14     -54.042662       0.384000
      15     -54.042658       0.384000
      16     -54.040935       0.384000
      17       3.008209       0.384000
      18       4.764912       0.384000
      19       4.764913       0.384000
      20       6.496932       0.384000
      21       8.221446       0.384000
      22       9.919913       0.384000
      23       9.919913       0.384000
      24      11.611685       0.000000
      25      15.171392       0.000000
      26      16.775890       0.000000
      27      16.775890       0.000000
      28      18.379976       0.000000
      29      18.441936       0.000000
      30      18.441936       0.000000
      31      19.288405       0.000000
      32      21.166426       0.000000

 10/10 kpoint (Cartesian) = 0.148260 0.148260 0.148260 (440 pws)
       1     -92.561592       0.128000
       2     -92.561586       0.128000
       3     -92.561586       0.128000
       4     -92.561024       0.128000
       5     -54.059507       0.128000
       6     -54.059507       0.128000
       7     -54.059505       0.128000
       8     -54.058282       0.128000
       9     -54.043181       0.128000
      10     -54.043175       0.128000
      11     -54.043175       0.128000
      12     -54.042411       0.128000
      13     -54.042411       0.128000
      14     -54.042408       0.128000
      15     -54.041593       0.128000
      16     -54.041593       0.128000
      17       4.065693       0.128000
      18       5.807312       0.128000
      19       5.807312       0.128000
      20       5.807312       0.128000
      21       7.550399       0.128000
      22       7.550400       0.128000
      23       7.550400       0.128000
      24       9.258679       0.128000
      25      19.349628       0.000000
      26      19.349628       0.000000
      27      19.349628       0.000000
      28      20.230918       0.000000
      29      20.230918       0.000000
      30      20.230919       0.000000
      31      21.799462       0.000000
      32      21.799462       0.000000




 ><><><><><><><><><><><><><><><><><><><><><><

    TOTAL-FORCE (eV/Angstrom)

 ><><><><><><><><><><><><><><><><><><><><><><

     atom              x              y              z
      Al1              0              0              0
      Al2              0              0              0
      Al3              0              0              0
      Al4              0              0              0


 ><><><><><><><><><><><><><><><><><><><><><><

 TOTAL-STRESS (KBAR)

 ><><><><><><><><><><><><><><><><><><><><><><

      -18.846952      -0.000000      +0.000000
       -0.000000     -18.846952      +0.000000
       +0.000000      +0.000000     -18.846952
 TOTAL-PRESSURE: -18.846952 KBAR
 largest force is 0, no movement is possible.
 it may converged, otherwise no movement of atom is allowed.
 end of geometry optimization
                                    istep = +1
                         update iteration = +0

 CARTESIAN COORDINATES ( UNIT = +1.889726 Bohr ).
         atom                   x                   y                   z                 mag                  vx                  vy                  vz
     tauc_Al1     +0.000000000000     +0.000000000000     +0.000000000000     +0.000000000000     +0.000000000000     +0.000000000000     +0.000000000000
     tauc_Al2     +0.000000000000     +2.023472396975     +2.023472396975     +0.000000000000     +0.000000000000     +0.000000000000     +0.000000000000
     tauc_Al3     +2.023472396975     +0.000000000000     +2.023472396975     +0.000000000000     +0.000000000000     +0.000000000000     +0.000000000000
     tauc_Al4     +2.023472396975     +2.023472396975     +0.000000000000     +0.000000000000     +0.000000000000     +0.000000000000     +0.000000000000


 Lattice relaxation is not converged yet (threshold is +0.100000000000)

                          Volume (Bohr^3) = +447.254338327830
                            Volume (A^3)) = +66.276175836827

 Lattice vectors: (Cartesian coordinate: in unit of a_0)
      +4.046870620082     +0.000000000000     +0.000000000000
      +0.000000000000     +4.046870620082     +0.000000000000
      +0.000000000000     +0.000000000000     +4.046870620082
 Reciprocal vectors: (Cartesian coordinate: in unit of 2 pi/a_0)
      +0.247104514545     -0.000000000000     -0.000000000000
      -0.000000000000     +0.247104514545     +0.000000000000
      -0.000000000000     +0.000000000000     +0.247104514545
 DONE : SETUP UNITCELL Time : 7.856788555000 (SEC)





 >>>>>>>>>>>>>>>>>>>>>>>>>>>>>>>>>>>>>>>>>>>>>>>>>>>>>>>>>>>>>>>>>>>>>>
 |                                                                    |
 | Doing symmetry analysis:                                           |
 | We calculate the norm of 3 vectors and the angles between them,    |
 | the type of Bravais lattice is given. We can judge if the unticell |
 | is a primitive cell. Finally we give the point group operation for |
 | this unitcell. We we use the point group operations to do symmetry |
 | analysis on given k-point mesh and the charge density.             |
 |                                                                    |
 <<<<<<<<<<<<<<<<<<<<<<<<<<<<<<<<<<<<<<<<<<<<<<<<<<<<<<<<<<<<<<<<<<<<<<




 LATTICE VECTORS: (CARTESIAN COORDINATE: IN UNIT OF A0)
      +4.046870620082     +0.000000000000     +0.000000000000
      +0.000000000000     +4.046870620082     +0.000000000000
      +0.000000000000     +0.000000000000     +4.046870620082
                       right hand lattice = 1
                             BRAVAIS TYPE = 1
                     BRAVAIS LATTICE NAME = 01. Cubic P (simple)
                                    IBRAV = 1
                                  BRAVAIS = SIMPLE CUBIC
                       LATTICE CONSTANT A = 17.639900070523
                                    ibrav = 1
                        ROTATION MATRICES = 48
              PURE POINT GROUP OPERATIONS = 48
                   SPACE GROUP OPERATIONS = 48
                              POINT GROUP = O_h
Warning : If the optimal symmetric configuration is not the input configuration, 
you have to manually change configurations, ABACUS would only calculate the input structure!
 DONE : SYMMETRY Time : 7.893090188000 (SEC)


 SETUP K-POINTS
                                    nspin = 1

  KPOINTS            DIRECT_X            DIRECT_Y            DIRECT_Z              WEIGHT
        1      0.000000000000      0.000000000000      0.000000000000      0.016000000000
        2      0.800000000000      0.000000000000      0.000000000000      0.096000000000
        3      0.600000000000      0.000000000000      0.000000000000      0.096000000000
        4      0.800000000000      0.800000000000      0.000000000000      0.192000000000
        5      0.800000000000      0.600000000000      0.000000000000      0.384000000000
        6      0.600000000000      0.600000000000      0.000000000000      0.192000000000
        7      0.800000000000      0.800000000000      0.800000000000      0.128000000000
        8      0.800000000000      0.800000000000      0.600000000000      0.384000000000
        9      0.600000000000      0.600000000000      0.800000000000      0.384000000000
       10      0.600000000000      0.600000000000      0.600000000000      0.128000000000

           k-point number in this process = 10
       minimum distributed K point number = 10

  KPOINTS         CARTESIAN_X         CARTESIAN_Y         CARTESIAN_Z              WEIGHT
        1      0.000000000000      0.000000000000      0.000000000000      0.016000000000
        2      0.197683611636      0.000000000000      0.000000000000      0.096000000000
        3      0.148262708727      0.000000000000      0.000000000000      0.096000000000
        4      0.197683611636      0.197683611636      0.000000000000      0.192000000000
        5      0.197683611636      0.148262708727      0.000000000000      0.384000000000
        6      0.148262708727      0.148262708727      0.000000000000      0.192000000000
        7      0.197683611636      0.197683611636      0.197683611636      0.128000000000
        8      0.197683611636      0.197683611636      0.148262708727      0.384000000000
        9      0.148262708727      0.148262708727      0.197683611636      0.384000000000
       10      0.148262708727      0.148262708727      0.148262708727      0.128000000000

  KPOINTS            DIRECT_X            DIRECT_Y            DIRECT_Z              WEIGHT
        1      0.000000000000      0.000000000000      0.000000000000      0.016000000000
        2      0.800000000000      0.000000000000      0.000000000000      0.096000000000
        3      0.600000000000      0.000000000000      0.000000000000      0.096000000000
        4      0.800000000000      0.800000000000      0.000000000000      0.192000000000
        5      0.800000000000      0.600000000000      0.000000000000      0.384000000000
        6      0.600000000000      0.600000000000      0.000000000000      0.192000000000
        7      0.800000000000      0.800000000000      0.800000000000      0.128000000000
        8      0.800000000000      0.800000000000      0.600000000000      0.384000000000
        9      0.600000000000      0.600000000000      0.800000000000      0.384000000000
       10      0.600000000000      0.600000000000      0.600000000000      0.128000000000
 DONE : INIT K-POINTS Time : 7.893388517000 (SEC)

                                     npwx = 449

 Make real space PAO into reciprocal space.
       max mesh points in Pseudopotential = 601
     dq(describe PAO in reciprocal space) = 0.010000000000
                                    max q = 934

 number of pseudo atomic orbitals for Al is 0
 Setup the Vl+Vh+Vxc according to new structure factor and new charge.
 DONE : LOCAL POTENTIAL Time : 7.898151593000 (SEC)


 Init Non-Local PseudoPotential table : 
 Init Non-Local-Pseudopotential done.
 DONE : NON-LOCAL POTENTIAL Time : 7.920253244000 (SEC)


 -------------------------------------------
 RELAX CELL : 3
 RELAX IONS : 1 (in total: 3)
 -------------------------------------------

 PW ALGORITHM --------------- ION=   3  ELEC=   1--------------------------------
 Notice: Threshold on eigenvalues was too large.
 hsover_error=0.440000 > DRHO=0.000000
 Origin diag_ethr = 0.010000
 New    diag_ethr = 0.000000

 Density error is 0.000000077935
                          Error Threshold = 0.000000000046

       Energy                       Rydberg                            eV
   E_KohnSham             -553.643527213818            -7532.706630925984
     E_Harris             -553.643527274193            -7532.706631747433
       E_band             -144.040247032874            -1959.768100974686
   E_one_elec             -339.125650135337            -4614.041179795056
    E_Hartree             +138.257595587864            +1881.091091774608
         E_xc              -62.604797314311             -851.781965609726
      E_Ewald             -290.170628069259            -3947.973933980661
      E_demet               -0.000047282774               -0.000643315150
      E_descf               +0.000000000000               +0.000000000000
     E_efield               +0.000000000000               +0.000000000000
        E_exx               +0.000000000000               +0.000000000000
      E_Fermi               +0.809705852336              +11.016613295710

 charge density convergence is achieved
 final etot is -7532.706630925984 eV

 STATE ENERGY(eV) AND OCCUPATIONS    NSPIN == 1
 1/10 kpoint (Cartesian) = 0.00000 0.00000 0.00000 (449 pws)
       1     -92.564101       0.016000
       2     -92.559520       0.016000
       3     -92.559520       0.016000
       4     -92.559509       0.016000
       5     -54.058093       0.016000
       6     -54.058093       0.016000
       7     -54.058093       0.016000
       8     -54.045759       0.016000
       9     -54.045759       0.016000
      10     -54.045759       0.016000
      11     -54.045752       0.016000
      12     -54.045752       0.016000
      13     -54.045752       0.016000
      14     -54.037202       0.016000
      15     -54.037202       0.016000
      16     -54.037202       0.016000
      17      -0.211642       0.016000
      18       7.978741       0.016000
      19       7.978741       0.016000
      20       7.978741       0.016000
      21       9.311338       0.016000
      22       9.311338       0.016000
      23       9.311338       0.016000
      24      16.223222       0.000000
      25      16.223222       0.000000
      26      16.223222       0.000000
      27      16.468992       0.000000
      28      16.468992       0.000000
      29      16.468992       0.000000
      30      16.468994       0.000000
      31      16.468994       0.000000
      32      16.468994       0.000000

 2/10 kpoint (Cartesian) = 0.197684 0.000000 0.000000 (439 pws)
       1     -92.563384       0.096000
       2     -92.559631       0.096000
       3     -92.558680       0.096000
       4     -92.558673       0.096000
       5     -54.056914       0.096000
       6     -54.056914       0.096000
       7     -54.056129       0.096000
       8     -54.046932       0.096000
       9     -54.046932       0.096000
      10     -54.045785       0.096000
      11     -54.045778       0.096000
      12     -54.044938       0.096000
      13     -54.044938       0.096000
      14     -54.039228       0.096000
      15     -54.038017       0.096000
      16     -54.038017       0.096000
      17       0.149938       0.096000
      18       5.449389       0.096000
      19       8.311095       0.096000
      20       8.311095       0.096000
      21       9.658777       0.096000
      22       9.658777       0.096000
      23      12.471411       0.000000
      24      13.321371       0.000000
      25      13.321371       0.000000
      26      14.750196       0.000000
      27      14.750197       0.000000
      28      16.580443       0.000000
      29      16.779684       0.000000
      30      16.779684       0.000000
      31      20.044515       0.000000
      32      20.044515       0.000000

 3/10 kpoint (Cartesian) = 0.148263 0.000000 0.000000 (438 pws)
       1     -92.562005       0.096000
       2     -92.559165       0.096000
       3     -92.558934       0.096000
       4     -92.558926       0.096000
       5     -54.053827       0.096000
       6     -54.053827       0.096000
       7     -54.050957       0.096000
       8     -54.050015       0.096000
       9     -54.050015       0.096000
      10     -54.045827       0.096000
      11     -54.045820       0.096000
      12     -54.044501       0.096000
      13     -54.042798       0.096000
      14     -54.042798       0.096000
      15     -54.040154       0.096000
      16     -54.040154       0.096000
      17       1.228889       0.096000
      18       3.007697       0.096000
      19       9.309573       0.096000
      20       9.309573       0.096000
      21      10.647135       0.096000
      22      10.647135       0.096000
      23      10.978177       0.093804
      24      10.978177       0.093804
      25      12.582862       0.000000
      26      12.582863       0.000000
      27      16.798756       0.000000
      28      17.647721       0.000000
      29      17.712622       0.000000
      30      17.712622       0.000000
      31      19.267615       0.000000
      32      19.267615       0.000000

 4/10 kpoint (Cartesian) = 0.197684 0.197684 0.000000 (440 pws)
       1     -92.564095       0.192000
       2     -92.559484       0.192000
       3     -92.559476       0.192000
       4     -92.557918       0.192000
       5     -54.055769       0.192000
       6     -54.055574       0.192000
       7     -54.055572       0.192000
       8     -54.048892       0.192000
       9     -54.046083       0.192000
      10     -54.046077       0.192000
      11     -54.044722       0.192000
      12     -54.044719       0.192000
      13     -54.044643       0.192000
      14     -54.041981       0.192000
      15     -54.038868       0.192000
      16     -54.037723       0.192000
      17       0.510519       0.192000
      18       5.796134       0.192000
      19       5.796134       0.192000
      20       8.643667       0.192000
      21       9.964593       0.192000
      22      10.986772       0.180391
      23      12.788880       0.000000
      24      12.788880       0.000000
      25      13.656520       0.000000
      26      13.656520       0.000000
      27      15.091737       0.000000
      28      15.091737       0.000000
      29      17.094732       0.000000
      30      18.656389       0.000000
      31      18.702276       0.000000
      32      19.722371       0.000000

 5/10 kpoint (Cartesian) = 0.197684 0.148263 0.000000 (440 pws)
       1     -92.561536       0.384000
       2     -92.560172       0.384000
       3     -92.559373       0.384000
       4     -92.559316       0.384000
       5     -54.053977       0.384000
       6     -54.052773       0.384000
       7     -54.051879       0.384000
       8     -54.051591       0.384000
       9     -54.049072       0.384000
      10     -54.046840       0.384000
      11     -54.044267       0.384000
      12     -54.044072       0.384000
      13     -54.043850       0.384000
      14     -54.042098       0.384000
      15     -54.041095       0.384000
      16     -54.039273       0.384000
      17       1.586639       0.384000
      18       3.360915       0.384000
      19       6.831335       0.384000
      20       8.533340       0.384000
      21       9.642797       0.384000
      22      11.101879       0.000002
      23      11.312365       0.000000
      24      12.716033       0.000000
      25      13.955142       0.000000
      26      14.661260       0.000000
      27      15.514756       0.000000
      28      15.968919       0.000000
      29      16.332155       0.000000
      30      17.197225       0.000000
      31      17.605609       0.000000
      32      21.358935       0.000000

 6/10 kpoint (Cartesian) = 0.148263 0.148263 0.000000 (435 pws)
       1     -92.560024       0.192000
       2     -92.560017       0.192000
       3     -92.559872       0.192000
       4     -92.559184       0.192000
       5     -54.053157       0.192000
       6     -54.053154       0.192000
       7     -54.053149       0.192000
       8     -54.050520       0.192000
       9     -54.050013       0.192000
      10     -54.046608       0.192000
      11     -54.046602       0.192000
      12     -54.043558       0.192000
      13     -54.042027       0.192000
      14     -54.041389       0.192000
      15     -54.041382       0.192000
      16     -54.039383       0.192000
      17       2.654476       0.192000
      18       4.415526       0.192000
      19       4.415527       0.192000
      20       6.154851       0.192000
      21      10.643805       0.192000
      22      12.131925       0.000000
      23      12.315608       0.000000
      24      12.315609       0.000000
      25      13.804621       0.000000
      26      13.804622       0.000000
      27      13.989199       0.000000
      28      15.454647       0.000000
      29      18.119178       0.000000
      30      18.119178       0.000000
      31      18.975682       0.000000
      32      20.861315       0.000000

 7/10 kpoint (Cartesian) = 0.197684 0.197684 0.197684 (439 pws)
       1     -92.562425       0.128000
[...]
      E_demet               -0.000041689800               -0.000567218827
      E_descf               +0.000000000000               +0.000000000000
     E_efield               +0.000000000000               +0.000000000000
        E_exx               +0.000000000000               +0.000000000000
      E_Fermi               +0.830921650513              +11.305269038538

 charge density convergence is achieved
 final etot is -7532.714188992381 eV

 STATE ENERGY(eV) AND OCCUPATIONS    NSPIN == 1
 1/10 kpoint (Cartesian) = 0.00000 0.00000 0.00000 (449 pws)
       1     -92.266880       0.016000
       2     -92.262015       0.016000
       3     -92.262015       0.016000
       4     -92.262014       0.016000
       5     -53.766259       0.016000
       6     -53.766259       0.016000
       7     -53.766259       0.016000
       8     -53.752797       0.016000
       9     -53.752797       0.016000
      10     -53.752797       0.016000
      11     -53.752797       0.016000
      12     -53.752797       0.016000
      13     -53.752797       0.016000
      14     -53.743493       0.016000
      15     -53.743493       0.016000
      16     -53.743493       0.016000
      17      -0.080947       0.016000
      18       8.199528       0.016000
      19       8.199528       0.016000
      20       8.199528       0.016000
      21       9.578155       0.016000
      22       9.578155       0.016000
      23       9.578155       0.016000
      24      16.499596       0.000000
      25      16.499596       0.000000
      26      16.499596       0.000000
      27      16.832766       0.000000
      28      16.832766       0.000000
      29      16.832766       0.000000
      30      16.832766       0.000000
      31      16.832766       0.000000
      32      16.832766       0.000000

 2/10 kpoint (Cartesian) = 0.199008 0.000000 0.000000 (439 pws)
       1     -92.266173       0.096000
       2     -92.262203       0.096000
       3     -92.261286       0.096000
       4     -92.261285       0.096000
       5     -53.764972       0.096000
       6     -53.764972       0.096000
       7     -53.764121       0.096000
       8     -53.754081       0.096000
       9     -53.754081       0.096000
      10     -53.752826       0.096000
      11     -53.752826       0.096000
      12     -53.751907       0.096000
      13     -53.751907       0.096000
      14     -53.745702       0.096000
      15     -53.744380       0.096000
      16     -53.744380       0.096000
      17       0.285467       0.096000
      18       5.651321       0.096000
      19       8.535593       0.096000
      20       8.535593       0.096000
      21       9.927747       0.096000
      22       9.927748       0.096000
      23      12.763343       0.000000
      24      13.602931       0.000000
      25      13.602931       0.000000
      26      15.109620       0.000000
      27      15.109620       0.000000
      28      16.861728       0.000000
      29      17.146436       0.000000
      30      17.146436       0.000000
      31      20.412453       0.000000
      32      20.412453       0.000000

 3/10 kpoint (Cartesian) = 0.149256 0.000000 0.000000 (438 pws)
       1     -92.264755       0.096000
       2     -92.262011       0.096000
       3     -92.261512       0.096000
       4     -92.261511       0.096000
       5     -53.761604       0.096000
       6     -53.761604       0.096000
       7     -53.758486       0.096000
       8     -53.757444       0.096000
       9     -53.757444       0.096000
      10     -53.752874       0.096000
      11     -53.752873       0.096000
      12     -53.751451       0.096000
      13     -53.749580       0.096000
      14     -53.749580       0.096000
      15     -53.746705       0.096000
      16     -53.746705       0.096000
      17       1.378632       0.096000
      18       3.180175       0.096000
      19       9.545298       0.096000
      20       9.545298       0.096000
      21      10.910231       0.096000
      22      10.910231       0.096000
      23      11.232909       0.095992
      24      11.232909       0.095992
      25      12.938504       0.000000
      26      12.938504       0.000000
      27      17.139355       0.000000
      28      17.943725       0.000000
      29      18.088394       0.000000
      30      18.088394       0.000000
      31      19.658377       0.000000
      32      19.658377       0.000000

 4/10 kpoint (Cartesian) = 0.199008 0.199008 0.000000 (440 pws)
       1     -92.266718       0.192000
       2     -92.262064       0.192000
       3     -92.262063       0.192000
       4     -92.260630       0.192000
       5     -53.763723       0.192000
       6     -53.763513       0.192000
       7     -53.763513       0.192000
       8     -53.756221       0.192000
       9     -53.753154       0.192000
      10     -53.753153       0.192000
      11     -53.751671       0.192000
      12     -53.751671       0.192000
      13     -53.751585       0.192000
      14     -53.748704       0.192000
      15     -53.745306       0.192000
      16     -53.744058       0.192000
      17       0.650838       0.192000
      18       6.002111       0.192000
      19       6.002111       0.192000
      20       8.871899       0.192000
      21      10.222303       0.192000
      22      11.278648       0.176016
      23      13.078577       0.000000
      24      13.078577       0.000000
      25      13.942280       0.000000
      26      13.942280       0.000000
      27      15.459540       0.000000
      28      15.459540       0.000000
      29      17.465014       0.000000
      30      19.005218       0.000000
      31      19.073784       0.000000
      32      20.124428       0.000000

 5/10 kpoint (Cartesian) = 0.199008 0.149256 0.000000 (440 pws)
       1     -92.264291       0.384000
       2     -92.262863       0.384000
       3     -92.261924       0.384000
       4     -92.261901       0.384000
       5     -53.761771       0.384000
       6     -53.760454       0.384000
       7     -53.759491       0.384000
       8     -53.759166       0.384000
       9     -53.756417       0.384000
      10     -53.754000       0.384000
      11     -53.751177       0.384000
      12     -53.750964       0.384000
      13     -53.750726       0.384000
      14     -53.748817       0.384000
      15     -53.747729       0.384000
      16     -53.745743       0.384000
      17       1.741033       0.384000
      18       3.537818       0.384000
      19       7.048981       0.384000
      20       8.767146       0.384000
      21       9.882330       0.384000
      22      11.402594       0.000000
      23      11.571044       0.000000
      24      13.009837       0.000000
      25      14.309638       0.000000
      26      14.959634       0.000000
      27      15.865679       0.000000
      28      16.313040       0.000000
      29      16.651566       0.000000
      30      17.572070       0.000000
      31      17.984051       0.000000
      32      21.741219       0.000000

 6/10 kpoint (Cartesian) = 0.149256 0.149256 0.000000 (435 pws)
       1     -92.262697       0.192000
       2     -92.262657       0.192000
       3     -92.262657       0.192000
       4     -92.261835       0.192000
       5     -53.760878       0.192000
       6     -53.760877       0.192000
       7     -53.760877       0.192000
       8     -53.758012       0.192000
       9     -53.757446       0.192000
      10     -53.753730       0.192000
      11     -53.753730       0.192000
      12     -53.750412       0.192000
      13     -53.748735       0.192000
      14     -53.748038       0.192000
      15     -53.748037       0.192000
      16     -53.745860       0.192000
      17       2.822542       0.192000
      18       4.605394       0.192000
      19       4.605394       0.192000
      20       6.365095       0.192000
      21      10.894877       0.192000
      22      12.445258       0.000000
      23      12.586209       0.000000
      24      12.586209       0.000000
      25      14.136549       0.000000
      26      14.136549       0.000000
      27      14.279926       0.000000
      28      15.809271       0.000000
      29      18.497844       0.000000
      30      18.497844       0.000000
      31      19.366542       0.000000
      32      21.266778       0.000000

 7/10 kpoint (Cartesian) = 0.199008 0.199008 0.199008 (439 pws)
       1     -92.265193       0.128000
       2     -92.261726       0.128000
       3     -92.261726       0.128000
       4     -92.261725       0.128000
       5     -53.763365       0.128000
       6     -53.763365       0.128000
       7     -53.763365       0.128000
       8     -53.754134       0.128000
       9     -53.754134       0.128000
      10     -53.754133       0.128000
      11     -53.751742       0.128000
      12     -53.750865       0.128000
      13     -53.750864       0.128000
      14     -53.750864       0.128000
      15     -53.744775       0.128000
      16     -53.744775       0.128000
      17       1.015222       0.128000
      18       6.351838       0.128000
      19       6.351838       0.128000
      20       6.351838       0.128000
      21      11.507812       0.000000
      22      11.507812       0.000000
      23      11.507812       0.000000
      24      13.489267       0.000000
      25      13.489267       0.000000
      26      13.489267       0.000000
      27      16.579953       0.000000
      28      17.779591       0.000000
      29      17.779591       0.000000
      30      17.779591       0.000000
      31      19.420836       0.000000
      32      19.420836       0.000000

 8/10 kpoint (Cartesian) = 0.199008 0.199008 0.149256 (439 pws)
       1     -92.263724       0.384000
       2     -92.263225       0.384000
       3     -92.261261       0.384000
       4     -92.261260       0.384000
       5     -53.763114       0.384000
       6     -53.763113       0.384000
       7     -53.761175       0.384000
       8     -53.756842       0.384000
       9     -53.755125       0.384000
      10     -53.755124       0.384000
      11     -53.750166       0.384000
      12     -53.750166       0.384000
      13     -53.749890       0.384000
      14     -53.748981       0.384000
      15     -53.746655       0.384000
      16     -53.746209       0.384000
      17       2.102491       0.384000
      18       3.894602       0.384000
      19       7.390949       0.384000
      20       7.390949       0.384000
      21       9.150021       0.384000
      22       9.150021       0.384000
      23      12.548527       0.000000
      24      14.246707       0.000000
      25      14.465065       0.000000
      26      14.465065       0.000000
      27      16.219153       0.000000
      28      16.219154       0.000000
      29      17.812636       0.000000
      30      18.724554       0.000000
      31      20.300361       0.000000
      32      20.436853       0.000000

 9/10 kpoint (Cartesian) = 0.149256 0.149256 0.199008 (435 pws)
       1     -92.263176       0.384000
       2     -92.262281       0.384000
       3     -92.262280       0.384000
       4     -92.262104       0.384000
       5     -53.764335       0.384000
       6     -53.763580       0.384000
       7     -53.763580       0.384000
       8     -53.761102       0.384000
       9     -53.753068       0.384000
      10     -53.751079       0.384000
      11     -53.751079       0.384000
      12     -53.748459       0.384000
      13     -53.748293       0.384000
      14     -53.748011       0.384000
      15     -53.748011       0.384000
      16     -53.746133       0.384000
      17       3.181231       0.384000
      18       4.959466       0.384000
      19       4.959466       0.384000
      20       6.710033       0.384000
      21       8.462762       0.384000
      22      10.179039       0.384000
      23      10.179039       0.384000
      24      11.891087       0.000000
      25      15.505132       0.000000
      26      17.125897       0.000000
      27      17.125898       0.000000
      28      18.755905       0.000000
      29      18.827737       0.000000
      30      18.827737       0.000000
      31      19.683501       0.000000
      32      21.577695       0.000000

 10/10 kpoint (Cartesian) = 0.149256 0.149256 0.149256 (440 pws)
       1     -92.262544       0.128000
       2     -92.262544       0.128000
       3     -92.262542       0.128000
       4     -92.262132       0.128000
       5     -53.766397       0.128000
       6     -53.766397       0.128000
       7     -53.766397       0.128000
       8     -53.765063       0.128000
       9     -53.748575       0.128000
      10     -53.748575       0.128000
      11     -53.748574       0.128000
      12     -53.747738       0.128000
      13     -53.747737       0.128000
      14     -53.747737       0.128000
      15     -53.746849       0.128000
      16     -53.746849       0.128000
      17       4.251813       0.128000
      18       6.012674       0.128000
      19       6.012675       0.128000
      20       6.012675       0.128000
      21       7.784474       0.128000
      22       7.784474       0.128000
      23       7.784474       0.128000
      24       9.511219       0.128000
      25      19.732411       0.000000
      26      19.732411       0.000000
      27      19.732411       0.000000
      28      20.635849       0.000000
      29      20.635849       0.000000
      30      20.635849       0.000000
      31      22.224649       0.000000
      32      22.224649       0.000000




 ><><><><><><><><><><><><><><><><><><><><><><

    TOTAL-FORCE (eV/Angstrom)

 ><><><><><><><><><><><><><><><><><><><><><><

     atom              x              y              z
      Al1              0              0              0
      Al2              0              0              0
      Al3              0              0              0
      Al4              0              0              0


 ><><><><><><><><><><><><><><><><><><><><><><

 TOTAL-STRESS (KBAR)

 ><><><><><><><><><><><><><><><><><><><><><><

       -0.032527      -0.000000      +0.000000
       -0.000000      -0.032527      +0.000000
       +0.000000      +0.000000      -0.032527
 TOTAL-PRESSURE: -0.032527 KBAR
 largest force is 0, no movement is possible.
 it may converged, otherwise no movement of atom is allowed.
 end of geometry optimization
                                    istep = +1
                         update iteration = +0

 CARTESIAN COORDINATES ( UNIT = +1.889726 Bohr ).
         atom                   x                   y                   z                 mag                  vx                  vy                  vz
     tauc_Al1     +0.000000000000     +0.000000000000     +0.000000000000     +0.000000000000     +0.000000000000     +0.000000000000     +0.000000000000
     tauc_Al2     +0.000000000000     +2.009967135124     +2.009967135124     +0.000000000000     +0.000000000000     +0.000000000000     +0.000000000000
     tauc_Al3     +2.009967135124     +0.000000000000     +2.009967135124     +0.000000000000     +0.000000000000     +0.000000000000     +0.000000000000
     tauc_Al4     +2.009967135124     +2.009967135124     +0.000000000000     +0.000000000000     +0.000000000000     +0.000000000000     +0.000000000000


 Lattice relaxation is converged!

 Largest gradient is = +0.032527010514
 end of lattice optimization
                                    istep = +49
                         update iteration = +1


 --------------------------------------------
 !FINAL_ETOT_IS -7532.7141889923814233 eV
 --------------------------------------------






  |CLASS_NAME---------|NAME---------------|TIME(Sec)-----|CALLS----|AVG------|PER%-------
                                      total      +79.92915       499     +0.16   +100.00%
                 Run_pw     plane_wave_line      +79.92541         1    +79.93   +100.00%
               PW_Basis      setuptransform       +0.28388         1     +0.28     +0.36%
               Symmetry           analy_sys      +39.75339        25     +1.59    +49.74%
             PW_Basis_K      setuptransform       +0.12852         1     +0.13     +0.16%
              ppcell_vl           init_vloc       +0.14615        49     +0.00     +0.18%
             ppcell_vnl            init_vnl       +1.08328        49     +0.02     +1.36%
                 Sphbes    Spherical_Bessel       +0.96201    183064     +0.00     +1.20%
              Potential            init_pot       +0.31528        49     +0.01     +0.39%
               PW_Basis          recip2real       +0.29196      1458     +0.00     +0.37%
               PW_Basis    gathers_scatterp       +0.16036      1458     +0.00     +0.20%
              Potential            v_of_rho       +0.97318       213     +0.00     +1.22%
          XC_Functional                v_xc       +1.10910       262     +0.00     +1.39%
               PW_Basis          real2recip       +0.36826      2292     +0.00     +0.46%
               PW_Basis    gatherp_scatters       +0.13390      2292     +0.00     +0.17%
                Cell_PW        opt_cells_pw      +79.38729         1    +79.39    +99.32%
                   Ions         opt_ions_pw      +79.38728         1    +79.39    +99.32%
          ESolver_KS_PW                 Run      +72.23188        49     +1.47    +90.37%
               Symmetry        rho_symmetry       +0.71152       262     +0.00     +0.89%
              HSolverPW               solve      +70.35112       213     +0.33    +88.02%
            pp_cell_vnl              getvnl       +0.73435      3110     +0.00     +0.92%
                 WF_igk              get_sk       +0.28389     20320     +0.00     +0.36%
        DiagoIterAssist      diagH_subspace      +14.35185      2100     +0.01    +17.96%
               HamiltPW               h_psi      +56.04117    198212     +0.00    +70.11%
               Operator          EkineticPW       +0.22597    198212     +0.00     +0.28%
               Operator              VeffPW      +50.39579    198212     +0.00    +63.05%
             PW_Basis_K          recip2real      +27.25747    310811     +0.00    +34.10%
             PW_Basis_K    gathers_scatterp       +7.07491    310811     +0.00     +8.85%
             PW_Basis_K          real2recip      +22.71762    263312     +0.00    +28.42%
             PW_Basis_K    gatherp_scatters       +5.56574    263312     +0.00     +6.96%
               Operator          NonlocalPW       +5.27117    198212     +0.00     +6.59%
             NonlocalPW     add_nonlocal_pp       +1.98686    198212     +0.00     +2.49%
        DiagoIterAssist        diagH_LAPACK       +0.91135      2100     +0.00     +1.14%
                DiagoCG           diag_once      +50.24009      2130     +0.02    +62.86%
            ElecStatePW            psiToRho       +4.80938       213     +0.02     +6.02%
                 Charge             rho_mpi       +0.36103       213     +0.00     +0.45%
                 Forces        cal_force_nl       +0.37945        49     +0.01     +0.47%
              Stress_PW          cal_stress       +2.94199        49     +0.06     +3.68%
            Stress_Func          stress_gga       +0.13507        49     +0.00     +0.17%
            Stress_Func          stress_loc       +0.28966        49     +0.01     +0.36%
            Stress_Func            stres_nl       +2.29468        49     +0.05     +2.87%
 ----------------------------------------------------------------------------------------

 CLASS_NAME---------|NAME---------------|MEMORY(MB)--------
                                         +113.0672
             wavefunc                 psi        +2.1924
 ----------------------------------------------------------

 Start  Time  : Mon Jul 18 03:22:08 2022
 Finish Time  : Mon Jul 18 03:23:28 2022
 Total  Time  : 0 h 1 mins 20 secs 
