 vasp.5.4.4.18Apr17-6-g9f103f2a35 (build Jul 12 2018 13:43:46) complex           
 executed on             LinuxGNU date 2019.06.24  12:57:28
 running on    1 total cores
 distrk:  each k-point on    1 cores,    1 groups
 distr:  one band on NCORES_PER_BAND=   1 cores,    1 groups


--------------------------------------------------------------------------------------------------------


 INCAR:
 POTCAR:    PAW_PBE H 15Jun2001                   
 POTCAR:    PAW_PBE C 08Apr2002                   
 POTCAR:    PAW_PBE H 15Jun2001                   
   VRHFIN =H: ultrasoft test                                                    
   LEXCH  = PE                                                                  
   EATOM  =    12.4884 eV,    0.9179 Ry                                         
                                                                                
   TITEL  = PAW_PBE H 15Jun2001                                                 
   LULTRA =        F    use ultrasoft PP ?                                      
   IUNSCR =        0    unscreen: 0-lin 1-nonlin 2-no                           
   RPACOR =    0.000    partial core radius                                     
   POMASS =    1.000; ZVAL   =    1.000    mass and valenz                      
   RCORE  =    1.100    outmost cutoff radius                                   
   RWIGS  =    0.700; RWIGS  =    0.370    wigner-seitz radius (au A)           
   ENMAX  =  250.000; ENMIN  =  200.000 eV                                      
   RCLOC  =    0.701    cutoff for local pot                                    
   LCOR   =        T    correct aug charges                                     
   LPAW   =        T    paw PP                                                  
   EAUG   =  400.000                                                            
   RMAX   =    1.123    core radius for proj-oper                               
   RAUG   =    1.200    factor for augmentation sphere                          
   RDEP   =    1.112    radius for radial grids                                 
   RDEPT  =    0.926    core radius for aug-charge                              
                                                                                
   Atomic configuration                                                         
    2 entries                                                                   
     n  l   j            E        occ.                                          
     1  0  0.50        -6.4927   1.0000                                         
     2  1  0.50        -3.4015   0.0000                                         
   Description                                                                  
     l       E           TYP  RCUT    TYP  RCUT                                 
     0     -6.4927494     23  1.100                                             
     0      6.8029130     23  1.100                                             
     1     -4.0817478     23  1.100                                             
  local pseudopotential read in
  atomic valenz-charges read in
  non local Contribution for L=           0  read in
    real space projection operators read in
  non local Contribution for L=           0  read in
    real space projection operators read in
  non local Contribution for L=           1  read in
    real space projection operators read in
    PAW grid and wavefunctions read in

   number of l-projection  operators is LMAX  =           3
   number of lm-projection operators is LMMAX =           5

 POTCAR:    PAW_PBE C 08Apr2002                   
   VRHFIN =C: s2p2                                                              
   LEXCH  = PE                                                                  
   EATOM  =   147.1560 eV,   10.8157 Ry                                         
                                                                                
   TITEL  = PAW_PBE C 08Apr2002                                                 
   LULTRA =        F    use ultrasoft PP ?                                      
   IUNSCR =        1    unscreen: 0-lin 1-nonlin 2-no                           
   RPACOR =    1.200    partial core radius                                     
   POMASS =   12.011; ZVAL   =    4.000    mass and valenz                      
   RCORE  =    1.500    outmost cutoff radius                                   
   RWIGS  =    1.630; RWIGS  =    0.863    wigner-seitz radius (au A)           
   ENMAX  =  400.000; ENMIN  =  300.000 eV                                      
   ICORE  =        2    local potential                                         
   LCOR   =        T    correct aug charges                                     
   LPAW   =        T    paw PP                                                  
   EAUG   =  644.873                                                            
   DEXC   =    0.000                                                            
   RMAX   =    1.529    core radius for proj-oper                               
   RAUG   =    1.300    factor for augmentation sphere                          
   RDEP   =    1.501    radius for radial grids                                 
   RDEPT  =    1.300    core radius for aug-charge                              
                                                                                
   Atomic configuration                                                         
    4 entries                                                                   
     n  l   j            E        occ.                                          
     1  0  0.50      -273.3789   2.0000                                         
     2  0  0.50       -13.7508   2.0000                                         
     2  1  0.50        -5.2854   2.0000                                         
     3  2  1.50        -5.4423   0.0000                                         
   Description                                                                  
     l       E           TYP  RCUT    TYP  RCUT                                 
     0    -13.7508458     23  1.200                                             
     0     -8.2022199     23  1.200                                             
     1     -5.2854383     23  1.500                                             
     1     34.0145650     23  1.500                                             
     2     -5.4423304      7  1.500                                             
  local pseudopotential read in
  partial core-charges read in
  partial kinetic energy density read in
  atomic valenz-charges read in
  non local Contribution for L=           0  read in
    real space projection operators read in
  non local Contribution for L=           0  read in
    real space projection operators read in
  non local Contribution for L=           1  read in
    real space projection operators read in
  non local Contribution for L=           1  read in
    real space projection operators read in
    PAW grid and wavefunctions read in

   number of l-projection  operators is LMAX  =           4
   number of lm-projection operators is LMMAX =           8


 ----------------------------------------------------------------------------- 
|                                                                             |
|  ADVICE TO THIS USER RUNNING 'VASP/VAMP'   (HEAR YOUR MASTER'S VOICE ...):  |
|                                                                             |
|      You have a (more or less) 'small supercell' and for smaller cells      |
|      it is recommended  to use the reciprocal-space projection scheme!      |
|      The real space optimization is not  efficient for small cells and it   |
|      is also less accurate ...                                              |
|      Therefore set LREAL=.FALSE. in the  INCAR file                         |
|                                                                             |
 ----------------------------------------------------------------------------- 

 Optimization of the real space projectors (new method)

 maximal supplied QI-value         = 34.20
 optimisation between [QCUT,QGAM] = [  9.92, 20.18] = [ 27.55,114.04] Ry 
 Optimized for a Real-space Cutoff    1.34 Angstroem

   l    n(q)    QCUT    max X(q) W(low)/X(q) W(high)/X(q)  e(spline) 
   0      8     9.919    19.460    0.16E-03    0.20E-03    0.36E-06
   0      8     9.919    12.209    0.16E-03    0.20E-03    0.35E-06
   1      8     9.919     4.655    0.19E-03    0.46E-03    0.40E-06
 Optimization of the real space projectors (new method)

 maximal supplied QI-value         = 25.13
 optimisation between [QCUT,QGAM] = [ 10.05, 20.36] = [ 28.30,116.06] Ry 
 Optimized for a Real-space Cutoff    1.51 Angstroem

   l    n(q)    QCUT    max X(q) W(low)/X(q) W(high)/X(q)  e(spline) 
   0      9    10.053   115.676    0.19E-03    0.21E-03    0.38E-06
   0      9    10.053    87.132    0.19E-03    0.21E-03    0.38E-06
   1      9    10.053     4.429    0.87E-04    0.11E-03    0.39E-06
   1      9    10.053     2.733    0.59E-04    0.62E-04    0.43E-06
  PAW_PBE H 15Jun2001                   :
 energy of atom  1       EATOM=  -12.4884
 kinetic energy error for atom=    0.0098 (will be added to EATOM!!)
  PAW_PBE C 08Apr2002                   :
 energy of atom  2       EATOM= -147.1560
 kinetic energy error for atom=    0.0288 (will be added to EATOM!!)


 POSCAR: POSCAR file written by OVITO            
  positions in cartesian coordinates
  No initial velocities read in
 exchange correlation table for  LEXCH =        8
   RHO(1)=    0.500       N(1)  =     2000
   RHO(2)=  100.500       N(2)  =     4000



--------------------------------------------------------------------------------------------------------


 ion  position               nearest neighbor table
   1  0.574  0.426  0.364-   5 1.13
   2  0.396  0.449  0.429-   5 1.08
   3  0.517  0.572  0.447-   5 1.08
   4  0.522  0.419  0.543-   5 1.10
   5  0.504  0.467  0.445-   3 1.08   2 1.08   4 1.10   1 1.13


IMPORTANT INFORMATION: All symmetrisations will be switched off!
NOSYMM: (Re-)initialisation of all symmetry stuff for point group C_1.




Automatic generation of k-mesh.
 generate k-points for:    1    1    1
Space group operators:
 irot       det(A)        alpha          n_x          n_y          n_z        tau_x        tau_y        tau_z
    1     1.000000     0.000001     1.000000     0.000000     0.000000     0.000000     0.000000     0.000000
 
 Subroutine IBZKPT returns following result:
 ===========================================
 
 Found      1 irreducible k-points:
 
 Following reciprocal coordinates:
            Coordinates               Weight
  0.000000  0.000000  0.000000      1.000000
 
 Following cartesian coordinates:
            Coordinates               Weight
  0.000000  0.000000  0.000000      1.000000
 


--------------------------------------------------------------------------------------------------------




 Dimension of arrays:
   k-points           NKPTS =      1   k-points in BZ     NKDIM =      1   number of bands    NBANDS=      8
   number of dos      NEDOS =    301   number of ions     NIONS =      5
   non local maximal  LDIM  =      4   non local SUM 2l+1 LMDIM =      8
   total plane-waves  NPLWV = 313600
   max r-space proj   IRMAX =   4594   max aug-charges    IRDMAX=   3928
   dimension x,y,z NGX =    64 NGY =   70 NGZ =   70
   dimension x,y,z NGXF=   128 NGYF=  140 NGZF=  140
   support grid    NGXF=   128 NGYF=  140 NGZF=  140
   ions per type =               4   1
   NGX,Y,Z   is equivalent  to a cutoff of  10.84, 11.40, 11.74 a.u.
   NGXF,Y,Z  is equivalent  to a cutoff of  21.68, 22.79, 23.49 a.u.

 SYSTEM =  unknown system                          
 POSCAR =  POSCAR file written by OVITO            

 Startparameter for this run:
   NWRITE =      2    write-flag & timer
   PREC   = a         normal or accurate (medium, high low for compatibility)
   ISTART =      0    job   : 0-new  1-cont  2-samecut
   ICHARG =      2    charge: 1-file 2-atom 10-const
   ISPIN  =      1    spin polarized calculation?
   LNONCOLLINEAR =      F non collinear calculations
   LSORBIT =      F    spin-orbit coupling
   INIWAV =      1    electr: 0-lowe 1-rand  2-diag
   LASPH  =      F    aspherical Exc in radial PAW
   METAGGA=      F    non-selfconsistent MetaGGA calc.

 Electronic Relaxation 1
   ENCUT  =  400.0 eV  29.40 Ry    5.42 a.u.  16.00 16.65 16.16*2*pi/ulx,y,z
   ENINI  =  400.0     initial cutoff
   ENAUG  =  644.9 eV  augmentation charge cutoff
   NELM   =    120;   NELMIN=  4; NELMDL= -5     # of ELM steps 
   EDIFF  = 0.1E-05   stopping-criterion for ELM
   LREAL  =      T    real-space projection
   NLSPLINE    = F    spline interpolate recip. space projectors
   LCOMPAT=      F    compatible to vasp.4.4
   GGA_COMPAT  = T    GGA compatible to vasp.4.4-vasp.4.6
   LMAXPAW     = -100 max onsite density
   LMAXMIX     =    2 max onsite mixed and CHGCAR
   VOSKOWN=      0    Vosko Wilk Nusair interpolation
   ROPT   =   -0.00025  -0.00025
 Ionic relaxation
   EDIFFG = 0.1E-04   stopping-criterion for IOM
   NSW    =      0    number of steps for IOM
   NBLOCK =      1;   KBLOCK =      1    inner block; outer block 
   IBRION =     -1    ionic relax: 0-MD 1-quasi-New 2-CG
   NFREE  =      0    steps in history (QN), initial steepest desc. (CG)
   ISIF   =      2    stress and relaxation
   IWAVPR =     10    prediction:  0-non 1-charg 2-wave 3-comb
   ISYM   =      0    0-nonsym 1-usesym 2-fastsym
   LCORR  =      T    Harris-Foulkes like correction to forces

   POTIM  = 0.5000    time-step for ionic-motion
   TEIN   =    0.0    initial temperature
   TEBEG  =    0.0;   TEEND  =   0.0 temperature during run
   SMASS  =  -3.00    Nose mass-parameter (am)
   estimated Nose-frequenzy (Omega)   =  0.10E-29 period in steps =****** mass=  -0.220E-26a.u.
   SCALEE = 1.0000    scale energy and forces
   NPACO  =    256;   APACO  = 16.0  distance and # of slots for P.C.
   PSTRESS=    0.0 pullay stress

  Mass of Ions in am
   POMASS =   1.00 12.01
  Ionic Valenz
   ZVAL   =   1.00  4.00
  Atomic Wigner-Seitz radii
   RWIGS  =  -1.00 -1.00
  virtual crystal weights 
   VCA    =   1.00  1.00
   NELECT =       8.0000    total number of electrons
   NUPDOWN=      -1.0000    fix difference up-down

 DOS related values:
   EMIN   =  10.00;   EMAX   =-10.00  energy-range for DOS
   EFERMI =   0.00
   ISMEAR =     0;   SIGMA  =   0.05  broadening in eV -4-tet -1-fermi 0-gaus

 Electronic relaxation 2 (details)
   IALGO  =     38    algorithm
   LDIAG  =      T    sub-space diagonalisation (order eigenvalues)
   LSUBROT=      F    optimize rotation matrix (better conditioning)
   TURBO    =      0    0=normal 1=particle mesh
   IRESTART =      0    0=no restart 2=restart with 2 vectors
   NREBOOT  =      0    no. of reboots
   NMIN     =      0    reboot dimension
   EREF     =   0.00    reference energy to select bands
   IMIX   =      4    mixing-type and parameters
     AMIX     =   0.40;   BMIX     =  1.00
     AMIX_MAG =   1.60;   BMIX_MAG =  1.00
     AMIN     =   0.10
     WC   =   100.;   INIMIX=   1;  MIXPRE=   1;  MAXMIX= -45

 Intra band minimization:
   WEIMIN = 0.0000     energy-eigenvalue tresh-hold
   EBREAK =  0.31E-07  absolut break condition
   DEPER  =   0.30     relativ break condition  

   TIME   =   0.40     timestep for ELM

  volume/ion in A,a.u.               =     198.49      1339.44
  Fermi-wavevector in a.u.,A,eV,Ry     =   0.328251  0.620304  1.466006  0.107748
  Thomas-Fermi vector in A             =   1.221678

 Write flags
   LWAVE        =      F    write WAVECAR
   LDOWNSAMPLE  =      F    k-point downsampling of WAVECAR
   LCHARG       =      F    write CHGCAR
   LVTOT        =      F    write LOCPOT, total local potential
   LVHAR        =      F    write LOCPOT, Hartree potential only
   LELF         =      F    write electronic localiz. function (ELF)
   LORBIT       =      0    0 simple, 1 ext, 2 COOP (PROOUT), +10 PAW based schemes


 Dipole corrections
   LMONO  =      F    monopole corrections only (constant potential shift)
   LDIPOL =      F    correct potential (dipole corrections)
   IDIPOL =      0    1-x, 2-y, 3-z, 4-all directions 
   EPSILON=  1.0000000 bulk dielectric constant

 Exchange correlation treatment:
   GGA     =    --    GGA type
   LEXCH   =     8    internal setting for exchange type
   VOSKOWN=      0    Vosko Wilk Nusair interpolation
   LHFCALC =     F    Hartree Fock is set to
   LHFONE  =     F    Hartree Fock one center treatment
   AEXX    =    0.0000 exact exchange contribution

 Linear response parameters
   LEPSILON=     F    determine dielectric tensor
   LRPA    =     F    only Hartree local field effects (RPA)
   LNABLA  =     F    use nabla operator in PAW spheres
   LVEL    =     F    velocity operator in full k-point grid
   LINTERFAST=   F  fast interpolation
   KINTER  =     0    interpolate to denser k-point grid
   CSHIFT  =0.1000    complex shift for real part using Kramers Kronig
   OMEGAMAX=  -1.0    maximum frequency
   DEG_THRESHOLD= 0.2000000E-02 threshold for treating states as degnerate
   RTIME   =   -0.100 relaxation time in fs
  (WPLASMAI=    0.000 imaginary part of plasma frequency in eV, 0.658/RTIME)
   DFIELD  = 0.0000000 0.0000000 0.0000000 field for delta impulse in time

 Orbital magnetization related:
   ORBITALMAG=     F  switch on orbital magnetization
   LCHIMAG   =     F  perturbation theory with respect to B field
   DQ        =  0.001000  dq finite difference perturbation B field
   LLRAUG    =     F  two centre corrections for induced B field



--------------------------------------------------------------------------------------------------------


 Static calculation
 charge density and potential will be updated during run
 non-spin polarized calculation
 Variant of blocked Davidson
 Davidson routine will perform the subspace rotation
 perform sub-space diagonalisation
    after iterative eigenvector-optimisation
 modified Broyden-mixing scheme, WC =      100.0
 initial mixing is a Kerker type mixing with AMIX =  0.4000 and BMIX =      1.0000
 Hartree-type preconditioning will be used
 using additional bands            4
 real space projection scheme for non local part
 use partial core corrections
 calculate Harris-corrections to forces   (improved forces if not selfconsistent)
 use gradient corrections 
 use of overlap-Matrix (Vanderbilt PP)
 Gauss-broadening in eV      SIGMA  =   0.05


--------------------------------------------------------------------------------------------------------


  energy-cutoff  :      400.00
  volume of cell :      992.43
      direct lattice vectors                 reciprocal lattice vectors
     9.813723600  0.000000000  0.000000000     0.101898122  0.000634305 -0.002895055
    -0.063567300 10.211780600  0.000000000     0.000000000  0.097926115 -0.002575686
     0.279732900  0.260469700  9.902910200     0.000000000 -0.000000000  0.100980417

  length of vectors
     9.813723600 10.211978448  9.910283820     0.101941213  0.097959982  0.100980417



 k-points in units of 2pi/SCALE and weight: read from INCAR                         
   0.00000000  0.00000000  0.00000000       1.000

 k-points in reciprocal lattice and weights: read from INCAR                         
   0.00000000  0.00000000  0.00000000       1.000

 position of ions in fractional coordinates (direct lattice) 
   0.57411255  0.42572741  0.36417621
   0.39644581  0.44852305  0.42935100
   0.51692303  0.57229847  0.44675199
   0.52248535  0.41916290  0.54287524
   0.50367951  0.46737203  0.44481616

 position of ions in cartesian coordinates  (Angst):
   5.70899160  4.44229180  3.60640430
   3.98220180  4.69205190  4.25182440
   5.16153150  5.96055180  4.42414480
   5.25274180  4.42180210  5.37604480
   5.03769160  4.88856180  4.40497450



--------------------------------------------------------------------------------------------------------


 k-point  1 :   0.0000 0.0000 0.0000  plane waves:   18013

 maximum and minimum number of plane-waves per node :     18013    18013

 maximum number of plane-waves:     18013
 maximum index in each direction: 
   IXMAX=   15   IYMAX=   16   IZMAX=   16
   IXMIN=  -15   IYMIN=  -16   IZMIN=  -16


 serial   3D FFT for wavefunctions
 parallel 3D FFT for charge:
    minimum data exchange during FFTs selected (reduces bandwidth)


 total amount of memory used by VASP MPI-rank0   274693. kBytes
=======================================================================

   base      :      30000. kBytes
   nonlr-proj:       1243. kBytes
   fftplans  :      86584. kBytes
   grid      :     154542. kBytes
   one-center:         15. kBytes
   wavefun   :       2309. kBytes

     INWAV:  cpu time    0.0000: real time    0.0000
 Broyden mixing: mesh for mixing (old mesh)
   NGX = 31   NGY = 33   NGZ = 33
  (NGX  =128   NGY  =140   NGZ  =140)
  gives a total of  33759 points

 initial charge density was supplied:
 charge density of overlapping atoms calculated
 number of electron       8.0000000 magnetization 
 keeping initial charge density in first step


--------------------------------------------------------------------------------------------------------


 Maximum index for non-local projection operator         4420
 Maximum index for augmentation-charges         3618 (set IRDMAX)


--------------------------------------------------------------------------------------------------------


 First call to EWALD:  gamma=   0.178
 Maximum number of real-space cells 3x 3x 3
 Maximum number of reciprocal cells 3x 3x 3

    FEWALD:  cpu time    0.0008: real time    0.0008


--------------------------------------- Iteration      1(   1)  ---------------------------------------


    POTLOK:  cpu time    2.0780: real time    2.0858
    SETDIJ:  cpu time    0.0079: real time    0.0079
     EDDAV:  cpu time    0.6196: real time    0.6211
       DOS:  cpu time    0.0003: real time    0.0003
    --------------------------------------------
      LOOP:  cpu time    2.7058: real time    2.7151

 eigenvalue-minimisations  :    16
 total energy-change (2. order) : 0.6085593E+02  (-0.1464507E+03)
 number of electron       8.0000000 magnetization 
 augmentation part        8.0000000 magnetization 

 Free energy of the ion-electron system (eV)
  ---------------------------------------------------
  alpha Z        PSCENC =         0.24409960
  Ewald energy   TEWEN  =       128.00218793
  -Hartree energ DENC   =      -243.46829891
  -exchange      EXHF   =         0.00000000
  -V(xc)+E(xc)   XCENC  =        21.99885505
  PAW double counting   =       117.05815612     -117.66307307
  entropy T*S    EENTRO =        -0.00000000
  eigenvalues    EBANDS =       -42.35775547
  atomic energy  EATOM  =       197.04175453
  Solvation  Ediel_sol  =         0.00000000
  ---------------------------------------------------
  free energy    TOTEN  =        60.85592578 eV

  energy without entropy =       60.85592578  energy(sigma->0) =       60.85592578


--------------------------------------------------------------------------------------------------------




--------------------------------------- Iteration      1(   2)  ---------------------------------------


     EDDAV:  cpu time    0.8009: real time    0.8030
       DOS:  cpu time    0.0001: real time    0.0001
    --------------------------------------------
      LOOP:  cpu time    0.8010: real time    0.8031

 eigenvalue-minimisations  :    24
 total energy-change (2. order) :-0.6726835E+02  (-0.6726835E+02)
 number of electron       8.0000000 magnetization 
 augmentation part        8.0000000 magnetization 

 Free energy of the ion-electron system (eV)
  ---------------------------------------------------
  alpha Z        PSCENC =         0.24409960
  Ewald energy   TEWEN  =       128.00218793
  -Hartree energ DENC   =      -243.46829891
  -exchange      EXHF   =         0.00000000
  -V(xc)+E(xc)   XCENC  =        21.99885505
  PAW double counting   =       117.05815612     -117.66307307
  entropy T*S    EENTRO =        -0.00000000
  eigenvalues    EBANDS =      -109.62610610
  atomic energy  EATOM  =       197.04175453
  Solvation  Ediel_sol  =         0.00000000
  ---------------------------------------------------
  free energy    TOTEN  =        -6.41242484 eV

  energy without entropy =       -6.41242484  energy(sigma->0) =       -6.41242484


--------------------------------------------------------------------------------------------------------




--------------------------------------- Iteration      1(   3)  ---------------------------------------


     EDDAV:  cpu time    0.6190: real time    0.6205
       DOS:  cpu time    0.0001: real time    0.0001
    --------------------------------------------
      LOOP:  cpu time    0.6192: real time    0.6206

 eigenvalue-minimisations  :    16
 total energy-change (2. order) :-0.1972890E+02  (-0.1972890E+02)
 number of electron       8.0000000 magnetization 
 augmentation part        8.0000000 magnetization 

 Free energy of the ion-electron system (eV)
  ---------------------------------------------------
  alpha Z        PSCENC =         0.24409960
  Ewald energy   TEWEN  =       128.00218793
  -Hartree energ DENC   =      -243.46829891
  -exchange      EXHF   =         0.00000000
  -V(xc)+E(xc)   XCENC  =        21.99885505
  PAW double counting   =       117.05815612     -117.66307307
  entropy T*S    EENTRO =        -0.00000000
  eigenvalues    EBANDS =      -129.35500811
  atomic energy  EATOM  =       197.04175453
  Solvation  Ediel_sol  =         0.00000000
  ---------------------------------------------------
  free energy    TOTEN  =       -26.14132685 eV

  energy without entropy =      -26.14132685  energy(sigma->0) =      -26.14132685


--------------------------------------------------------------------------------------------------------




--------------------------------------- Iteration      1(   4)  ---------------------------------------


     EDDAV:  cpu time    1.2642: real time    1.2673
       DOS:  cpu time    0.0002: real time    0.0002
    --------------------------------------------
      LOOP:  cpu time    1.2644: real time    1.2675

 eigenvalue-minimisations  :    32
 total energy-change (2. order) :-0.1327737E+01  (-0.1327737E+01)
 number of electron       8.0000000 magnetization 
 augmentation part        8.0000000 magnetization 

 Free energy of the ion-electron system (eV)
  ---------------------------------------------------
  alpha Z        PSCENC =         0.24409960
  Ewald energy   TEWEN  =       128.00218793
  -Hartree energ DENC   =      -243.46829891
  -exchange      EXHF   =         0.00000000
  -V(xc)+E(xc)   XCENC  =        21.99885505
  PAW double counting   =       117.05815612     -117.66307307
  entropy T*S    EENTRO =        -0.00000000
  eigenvalues    EBANDS =      -130.68274537
  atomic energy  EATOM  =       197.04175453
  Solvation  Ediel_sol  =         0.00000000
  ---------------------------------------------------
  free energy    TOTEN  =       -27.46906412 eV

  energy without entropy =      -27.46906412  energy(sigma->0) =      -27.46906412


--------------------------------------------------------------------------------------------------------




--------------------------------------- Iteration      1(   5)  ---------------------------------------


     EDDAV:  cpu time    1.1051: real time    1.1077
       DOS:  cpu time    0.0001: real time    0.0001
    CHARGE:  cpu time    0.1418: real time    0.1421
    MIXING:  cpu time    0.0483: real time    0.0485
    --------------------------------------------
      LOOP:  cpu time    1.2954: real time    1.2985

 eigenvalue-minimisations  :    32
 total energy-change (2. order) :-0.9551906E-03  (-0.9551906E-03)
 number of electron       8.0000000 magnetization 
 augmentation part        0.2246760 magnetization 

 Broyden mixing:
  rms(total) = 0.86906E+00    rms(broyden)= 0.86880E+00
  rms(prec ) = 0.12271E+01
  weight for this iteration     100.00

 Free energy of the ion-electron system (eV)
  ---------------------------------------------------
  alpha Z        PSCENC =         0.24409960
  Ewald energy   TEWEN  =       128.00218793
  -Hartree energ DENC   =      -243.46829891
  -exchange      EXHF   =         0.00000000
  -V(xc)+E(xc)   XCENC  =        21.99885505
  PAW double counting   =       117.05815612     -117.66307307
  entropy T*S    EENTRO =        -0.00000000
  eigenvalues    EBANDS =      -130.68370057
  atomic energy  EATOM  =       197.04175453
  Solvation  Ediel_sol  =         0.00000000
  ---------------------------------------------------
  free energy    TOTEN  =       -27.47001931 eV

  energy without entropy =      -27.47001931  energy(sigma->0) =      -27.47001931


--------------------------------------------------------------------------------------------------------




--------------------------------------- Iteration      1(   6)  ---------------------------------------


    POTLOK:  cpu time    2.1818: real time    2.1870
    SETDIJ:  cpu time    0.0076: real time    0.0076
     EDDAV:  cpu time    0.8524: real time    0.8544
       DOS:  cpu time    0.0001: real time    0.0001
    CHARGE:  cpu time    0.1313: real time    0.1316
    MIXING:  cpu time    0.0463: real time    0.0464
    --------------------------------------------
      LOOP:  cpu time    3.2195: real time    3.2271

 eigenvalue-minimisations  :    24
 total energy-change (2. order) : 0.2868280E+01  (-0.8808275E+00)
 number of electron       8.0000000 magnetization 
 augmentation part        0.1966830 magnetization 

 Broyden mixing:
  rms(total) = 0.44395E+00    rms(broyden)= 0.44383E+00
  rms(prec ) = 0.55610E+00
  weight for this iteration     100.00

 eigenvalues of (default mixing * dielectric matrix)
  average eigenvalue GAMMA=   1.1977
  1.1977

 Free energy of the ion-electron system (eV)
  ---------------------------------------------------
  alpha Z        PSCENC =         0.24409960
  Ewald energy   TEWEN  =       128.00218793
  -Hartree energ DENC   =      -263.12919357
  -exchange      EXHF   =         0.00000000
  -V(xc)+E(xc)   XCENC  =        23.19239757
  PAW double counting   =       237.88791438     -238.66680499
  entropy T*S    EENTRO =        -0.00000000
  eigenvalues    EBANDS =      -109.17409462
  atomic energy  EATOM  =       197.04175453
  Solvation  Ediel_sol  =         0.00000000
  ---------------------------------------------------
  free energy    TOTEN  =       -24.60173916 eV

  energy without entropy =      -24.60173916  energy(sigma->0) =      -24.60173916


--------------------------------------------------------------------------------------------------------




--------------------------------------- Iteration      1(   7)  ---------------------------------------


    POTLOK:  cpu time    2.2203: real time    2.2255
    SETDIJ:  cpu time    0.0075: real time    0.0075
     EDDAV:  cpu time    0.9657: real time    0.9680
       DOS:  cpu time    0.0001: real time    0.0001
    CHARGE:  cpu time    0.1547: real time    0.1550
    MIXING:  cpu time    0.0511: real time    0.0513
    --------------------------------------------
      LOOP:  cpu time    3.3994: real time    3.4075

 eigenvalue-minimisations  :    24
 total energy-change (2. order) : 0.4769826E+00  (-0.7228324E-01)
 number of electron       8.0000000 magnetization 
 augmentation part        0.1884451 magnetization 

 Broyden mixing:
  rms(total) = 0.22535E+00    rms(broyden)= 0.22530E+00
  rms(prec ) = 0.27726E+00
  weight for this iteration     100.00

 eigenvalues of (default mixing * dielectric matrix)
  average eigenvalue GAMMA=   1.6904
  1.2480  2.1327

 Free energy of the ion-electron system (eV)
  ---------------------------------------------------
  alpha Z        PSCENC =         0.24409960
  Ewald energy   TEWEN  =       128.00218793
  -Hartree energ DENC   =      -273.12716645
  -exchange      EXHF   =         0.00000000
  -V(xc)+E(xc)   XCENC  =        23.94523246
  PAW double counting   =       364.44777957     -365.25383509
  entropy T*S    EENTRO =        -0.00000000
  eigenvalues    EBANDS =       -99.42480915
  atomic energy  EATOM  =       197.04175453
  Solvation  Ediel_sol  =         0.00000000
  ---------------------------------------------------
  free energy    TOTEN  =       -24.12475660 eV

  energy without entropy =      -24.12475660  energy(sigma->0) =      -24.12475660


--------------------------------------------------------------------------------------------------------




--------------------------------------- Iteration      1(   8)  ---------------------------------------


    POTLOK:  cpu time    2.2368: real time    2.2421
    SETDIJ:  cpu time    0.0074: real time    0.0074
     EDDAV:  cpu time    0.9943: real time    0.9966
       DOS:  cpu time    0.0001: real time    0.0001
    CHARGE:  cpu time    0.1650: real time    0.1654
    MIXING:  cpu time    0.0538: real time    0.0539
    --------------------------------------------
      LOOP:  cpu time    3.4573: real time    3.4655

 eigenvalue-minimisations  :    24
 total energy-change (2. order) : 0.1622090E+00  (-0.1698159E-01)
 number of electron       8.0000000 magnetization 
 augmentation part        0.1857954 magnetization 

 Broyden mixing:
  rms(total) = 0.26861E-01    rms(broyden)= 0.26831E-01
  rms(prec ) = 0.55306E-01
  weight for this iteration     100.00

 eigenvalues of (default mixing * dielectric matrix)
  average eigenvalue GAMMA=   1.5664
  2.1679  1.1141  1.4171

 Free energy of the ion-electron system (eV)
  ---------------------------------------------------
  alpha Z        PSCENC =         0.24409960
  Ewald energy   TEWEN  =       128.00218793
  -Hartree energ DENC   =      -280.08027036
  -exchange      EXHF   =         0.00000000
  -V(xc)+E(xc)   XCENC  =        24.56471743
  PAW double counting   =       475.40151931     -476.19403747
  entropy T*S    EENTRO =        -0.00000000
  eigenvalues    EBANDS =       -92.94251855
  atomic energy  EATOM  =       197.04175453
  Solvation  Ediel_sol  =         0.00000000
  ---------------------------------------------------
  free energy    TOTEN  =       -23.96254759 eV

  energy without entropy =      -23.96254759  energy(sigma->0) =      -23.96254759


--------------------------------------------------------------------------------------------------------




--------------------------------------- Iteration      1(   9)  ---------------------------------------


    POTLOK:  cpu time    2.1646: real time    2.1697
    SETDIJ:  cpu time    0.0074: real time    0.0074
     EDDAV:  cpu time    1.1450: real time    1.1477
       DOS:  cpu time    0.0001: real time    0.0001
    CHARGE:  cpu time    0.1356: real time    0.1360
    MIXING:  cpu time    0.0473: real time    0.0474
    --------------------------------------------
      LOOP:  cpu time    3.5000: real time    3.5083

 eigenvalue-minimisations  :    32
 total energy-change (2. order) : 0.7442057E-02  (-0.3261421E-03)
 number of electron       8.0000000 magnetization 
 augmentation part        0.1853117 magnetization 

 Broyden mixing:
  rms(total) = 0.16248E-01    rms(broyden)= 0.16244E-01
  rms(prec ) = 0.36207E-01
  weight for this iteration     100.00

 eigenvalues of (default mixing * dielectric matrix)
  average eigenvalue GAMMA=   1.8934
  2.9398  2.4419  0.9831  1.2091

 Free energy of the ion-electron system (eV)
  ---------------------------------------------------
  alpha Z        PSCENC =         0.24409960
  Ewald energy   TEWEN  =       128.00218793
  -Hartree energ DENC   =      -281.46415799
  -exchange      EXHF   =         0.00000000
  -V(xc)+E(xc)   XCENC  =        24.64294760
  PAW double counting   =       474.31189956     -475.10132031
  entropy T*S    EENTRO =        -0.00000000
  eigenvalues    EBANDS =       -91.63251645
  atomic energy  EATOM  =       197.04175453
  Solvation  Ediel_sol  =         0.00000000
  ---------------------------------------------------
  free energy    TOTEN  =       -23.95510553 eV

  energy without entropy =      -23.95510553  energy(sigma->0) =      -23.95510553


--------------------------------------------------------------------------------------------------------




--------------------------------------- Iteration      1(  10)  ---------------------------------------


    POTLOK:  cpu time    1.9913: real time    1.9960
    SETDIJ:  cpu time    0.0075: real time    0.0075
     EDDAV:  cpu time    0.6547: real time    0.6563
       DOS:  cpu time    0.0001: real time    0.0001
    CHARGE:  cpu time    0.1487: real time    0.1491
    MIXING:  cpu time    0.0534: real time    0.0535
    --------------------------------------------
      LOOP:  cpu time    2.8558: real time    2.8626

 eigenvalue-minimisations  :    16
 total energy-change (2. order) : 0.8605172E-02  (-0.5651889E-03)
 number of electron       8.0000000 magnetization 
 augmentation part        0.1850885 magnetization 

 Broyden mixing:
  rms(total) = 0.67442E-02    rms(broyden)= 0.67428E-02
  rms(prec ) = 0.16146E-01
  weight for this iteration     100.00

 eigenvalues of (default mixing * dielectric matrix)
  average eigenvalue GAMMA=   1.9941
  3.2241  0.9960  1.2105  2.2699  2.2699

 Free energy of the ion-electron system (eV)
  ---------------------------------------------------
  alpha Z        PSCENC =         0.24409960
  Ewald energy   TEWEN  =       128.00218793
  -Hartree energ DENC   =      -283.09195919
  -exchange      EXHF   =         0.00000000
  -V(xc)+E(xc)   XCENC  =        24.71461904
  PAW double counting   =       464.56976847     -465.35515468
  entropy T*S    EENTRO =        -0.00000000
  eigenvalues    EBANDS =       -90.07181605
  atomic energy  EATOM  =       197.04175453
  Solvation  Ediel_sol  =         0.00000000
  ---------------------------------------------------
  free energy    TOTEN  =       -23.94650036 eV

  energy without entropy =      -23.94650036  energy(sigma->0) =      -23.94650036


--------------------------------------------------------------------------------------------------------




--------------------------------------- Iteration      1(  11)  ---------------------------------------


    POTLOK:  cpu time    1.8300: real time    1.8343
    SETDIJ:  cpu time    0.0073: real time    0.0073
     EDDAV:  cpu time    1.0793: real time    1.0818
       DOS:  cpu time    0.0001: real time    0.0001
    CHARGE:  cpu time    0.1397: real time    0.1400
    MIXING:  cpu time    0.0464: real time    0.0465
    --------------------------------------------
      LOOP:  cpu time    3.1027: real time    3.1101

 eigenvalue-minimisations  :    32
 total energy-change (2. order) :-0.8284184E-02  (-0.3565211E-03)
 number of electron       8.0000000 magnetization 
 augmentation part        0.1846314 magnetization 

 Broyden mixing:
  rms(total) = 0.54592E-02    rms(broyden)= 0.54581E-02
  rms(prec ) = 0.97854E-02
  weight for this iteration     100.00

 eigenvalues of (default mixing * dielectric matrix)
  average eigenvalue GAMMA=   2.1274
  4.4527  2.8542  2.2409  1.2441  0.9861  0.9861

 Free energy of the ion-electron system (eV)
  ---------------------------------------------------
  alpha Z        PSCENC =         0.24409960
  Ewald energy   TEWEN  =       128.00218793
  -Hartree energ DENC   =      -284.01003121
  -exchange      EXHF   =         0.00000000
  -V(xc)+E(xc)   XCENC  =        24.74849304
  PAW double counting   =       467.20150645     -467.98882603
  entropy T*S    EENTRO =        -0.00000000
  eigenvalues    EBANDS =       -89.19396885
  atomic energy  EATOM  =       197.04175453
  Solvation  Ediel_sol  =         0.00000000
  ---------------------------------------------------
  free energy    TOTEN  =       -23.95478454 eV

  energy without entropy =      -23.95478454  energy(sigma->0) =      -23.95478454


--------------------------------------------------------------------------------------------------------




--------------------------------------- Iteration      1(  12)  ---------------------------------------


    POTLOK:  cpu time    1.7596: real time    1.7638
    SETDIJ:  cpu time    0.0070: real time    0.0070
     EDDAV:  cpu time    0.8199: real time    0.8219
       DOS:  cpu time    0.0001: real time    0.0001
    CHARGE:  cpu time    0.1472: real time    0.1475
    MIXING:  cpu time    0.0514: real time    0.0516
    --------------------------------------------
      LOOP:  cpu time    2.7853: real time    2.7919

 eigenvalue-minimisations  :    24
 total energy-change (2. order) :-0.2926353E-02  (-0.6949657E-04)
 number of electron       8.0000000 magnetization 
 augmentation part        0.1848457 magnetization 

 Broyden mixing:
  rms(total) = 0.21243E-02    rms(broyden)= 0.21240E-02
  rms(prec ) = 0.48699E-02
  weight for this iteration     100.00

 eigenvalues of (default mixing * dielectric matrix)
  average eigenvalue GAMMA=   2.3339
  5.2860  3.1517  2.6358  1.9803  1.2590  1.0123  1.0123

 Free energy of the ion-electron system (eV)
  ---------------------------------------------------
  alpha Z        PSCENC =         0.24409960
  Ewald energy   TEWEN  =       128.00218793
  -Hartree energ DENC   =      -283.75036282
  -exchange      EXHF   =         0.00000000
  -V(xc)+E(xc)   XCENC  =        24.72316895
  PAW double counting   =       464.07807478     -464.86454432
  entropy T*S    EENTRO =        -0.00000000
  eigenvalues    EBANDS =       -89.43208954
  atomic energy  EATOM  =       197.04175453
  Solvation  Ediel_sol  =         0.00000000
  ---------------------------------------------------
  free energy    TOTEN  =       -23.95771089 eV

  energy without entropy =      -23.95771089  energy(sigma->0) =      -23.95771089


--------------------------------------------------------------------------------------------------------




--------------------------------------- Iteration      1(  13)  ---------------------------------------


    POTLOK:  cpu time    1.7342: real time    1.7384
    SETDIJ:  cpu time    0.0068: real time    0.0068
     EDDAV:  cpu time    0.5812: real time    0.5826
       DOS:  cpu time    0.0001: real time    0.0001
    CHARGE:  cpu time    0.1349: real time    0.1352
    MIXING:  cpu time    0.0515: real time    0.0516
    --------------------------------------------
      LOOP:  cpu time    2.5086: real time    2.5147

 eigenvalue-minimisations  :    16
 total energy-change (2. order) :-0.3903771E-02  (-0.8426555E-04)
 number of electron       8.0000000 magnetization 
 augmentation part        0.1848083 magnetization 

 Broyden mixing:
  rms(total) = 0.18530E-02    rms(broyden)= 0.18528E-02
  rms(prec ) = 0.27639E-02
  weight for this iteration     100.00

 eigenvalues of (default mixing * dielectric matrix)
  average eigenvalue GAMMA=   2.3561
  5.9991  3.7223  2.5256  2.3007  1.2615  1.0729  0.9624  1.0043

 Free energy of the ion-electron system (eV)
  ---------------------------------------------------
  alpha Z        PSCENC =         0.24409960
  Ewald energy   TEWEN  =       128.00218793
  -Hartree energ DENC   =      -283.84751429
  -exchange      EXHF   =         0.00000000
  -V(xc)+E(xc)   XCENC  =        24.72428136
  PAW double counting   =       465.93041567     -466.71640088
  entropy T*S    EENTRO =        -0.00000000
  eigenvalues    EBANDS =       -89.34043857
  atomic energy  EATOM  =       197.04175453
  Solvation  Ediel_sol  =         0.00000000
  ---------------------------------------------------
  free energy    TOTEN  =       -23.96161467 eV

  energy without entropy =      -23.96161467  energy(sigma->0) =      -23.96161467


--------------------------------------------------------------------------------------------------------




--------------------------------------- Iteration      1(  14)  ---------------------------------------


    POTLOK:  cpu time    1.6910: real time    1.6950
    SETDIJ:  cpu time    0.0068: real time    0.0069
     EDDAV:  cpu time    0.9953: real time    0.9976
       DOS:  cpu time    0.0001: real time    0.0001
    CHARGE:  cpu time    0.1242: real time    0.1245
    MIXING:  cpu time    0.0477: real time    0.0478
    --------------------------------------------
      LOOP:  cpu time    2.8651: real time    2.8719

 eigenvalue-minimisations  :    32
 total energy-change (2. order) :-0.8017328E-03  (-0.1030367E-04)
 number of electron       8.0000000 magnetization 
 augmentation part        0.1848150 magnetization 

 Broyden mixing:
  rms(total) = 0.85931E-03    rms(broyden)= 0.85923E-03
  rms(prec ) = 0.14274E-02
  weight for this iteration     100.00

 eigenvalues of (default mixing * dielectric matrix)
  average eigenvalue GAMMA=   2.5204
  6.8598  4.1904  2.9038  2.4077  2.0301  1.2604  0.9881  0.9881  1.0551

 Free energy of the ion-electron system (eV)
  ---------------------------------------------------
  alpha Z        PSCENC =         0.24409960
  Ewald energy   TEWEN  =       128.00218793
  -Hartree energ DENC   =      -283.75735578
  -exchange      EXHF   =         0.00000000
  -V(xc)+E(xc)   XCENC  =        24.71561482
  PAW double counting   =       464.65401103     -465.44009514
  entropy T*S    EENTRO =        -0.00000000
  eigenvalues    EBANDS =       -89.42263337
  atomic energy  EATOM  =       197.04175453
  Solvation  Ediel_sol  =         0.00000000
  ---------------------------------------------------
  free energy    TOTEN  =       -23.96241640 eV

  energy without entropy =      -23.96241640  energy(sigma->0) =      -23.96241640


--------------------------------------------------------------------------------------------------------




--------------------------------------- Iteration      1(  15)  ---------------------------------------


    POTLOK:  cpu time    1.6676: real time    1.6715
    SETDIJ:  cpu time    0.0068: real time    0.0069
     EDDAV:  cpu time    0.5428: real time    0.5441
       DOS:  cpu time    0.0001: real time    0.0001
    CHARGE:  cpu time    0.1142: real time    0.1144
    MIXING:  cpu time    0.0523: real time    0.0524
    --------------------------------------------
      LOOP:  cpu time    2.3838: real time    2.3895

 eigenvalue-minimisations  :    16
 total energy-change (2. order) :-0.3619457E-03  (-0.2831129E-05)
 number of electron       8.0000000 magnetization 
 augmentation part        0.1848208 magnetization 

 Broyden mixing:
  rms(total) = 0.44470E-03    rms(broyden)= 0.44461E-03
  rms(prec ) = 0.64705E-03
  weight for this iteration     100.00

 eigenvalues of (default mixing * dielectric matrix)
  average eigenvalue GAMMA=   2.4770
  7.3231  4.6354  2.8433  2.4952  2.1099  1.2775  1.1422  1.0000  0.9714  0.9714

 Free energy of the ion-electron system (eV)
  ---------------------------------------------------
  alpha Z        PSCENC =         0.24409960
  Ewald energy   TEWEN  =       128.00218793
  -Hartree energ DENC   =      -283.77414078
  -exchange      EXHF   =         0.00000000
  -V(xc)+E(xc)   XCENC  =        24.71672446
  PAW double counting   =       464.51557667     -465.30159992
  entropy T*S    EENTRO =        -0.00000000
  eigenvalues    EBANDS =       -89.40738083
  atomic energy  EATOM  =       197.04175453
  Solvation  Ediel_sol  =         0.00000000
  ---------------------------------------------------
  free energy    TOTEN  =       -23.96277834 eV

  energy without entropy =      -23.96277834  energy(sigma->0) =      -23.96277834


--------------------------------------------------------------------------------------------------------




--------------------------------------- Iteration      1(  16)  ---------------------------------------


    POTLOK:  cpu time    1.6302: real time    1.6340
    SETDIJ:  cpu time    0.0063: real time    0.0063
     EDDAV:  cpu time    0.9390: real time    0.9412
       DOS:  cpu time    0.0001: real time    0.0001
    CHARGE:  cpu time    0.0988: real time    0.0990
    MIXING:  cpu time    0.0477: real time    0.0478
    --------------------------------------------
      LOOP:  cpu time    2.7220: real time    2.7284

 eigenvalue-minimisations  :    32
 total energy-change (2. order) :-0.3914084E-04  (-0.1278052E-06)
 number of electron       8.0000000 magnetization 
 augmentation part        0.1848132 magnetization 

 Broyden mixing:
  rms(total) = 0.19094E-03    rms(broyden)= 0.19092E-03
  rms(prec ) = 0.35390E-03
  weight for this iteration     100.00

 eigenvalues of (default mixing * dielectric matrix)
  average eigenvalue GAMMA=   2.6097
  8.0660  4.6570  3.8047  2.4249  2.4249  1.9888  1.2803  1.1370  0.9593  0.9593
  1.0044

 Free energy of the ion-electron system (eV)
  ---------------------------------------------------
  alpha Z        PSCENC =         0.24409960
  Ewald energy   TEWEN  =       128.00218793
  -Hartree energ DENC   =      -283.78083731
  -exchange      EXHF   =         0.00000000
  -V(xc)+E(xc)   XCENC  =        24.71708390
  PAW double counting   =       464.64367779     -465.42976729
  entropy T*S    EENTRO =        -0.00000000
  eigenvalues    EBANDS =       -89.40101664
  atomic energy  EATOM  =       197.04175453
  Solvation  Ediel_sol  =         0.00000000
  ---------------------------------------------------
  free energy    TOTEN  =       -23.96281748 eV

  energy without entropy =      -23.96281748  energy(sigma->0) =      -23.96281748


--------------------------------------------------------------------------------------------------------




--------------------------------------- Iteration      1(  17)  ---------------------------------------


    POTLOK:  cpu time    1.6609: real time    1.6648
    SETDIJ:  cpu time    0.0069: real time    0.0069
     EDDAV:  cpu time    0.8879: real time    0.8900
       DOS:  cpu time    0.0001: real time    0.0001
    CHARGE:  cpu time    0.0996: real time    0.0998
    MIXING:  cpu time    0.0499: real time    0.0500
    --------------------------------------------
      LOOP:  cpu time    2.7054: real time    2.7117

 eigenvalue-minimisations  :    32
 total energy-change (2. order) :-0.5487779E-04  (-0.5045785E-06)
 number of electron       8.0000000 magnetization 
 augmentation part        0.1847988 magnetization 

 Broyden mixing:
  rms(total) = 0.16229E-03    rms(broyden)= 0.16222E-03
  rms(prec ) = 0.24313E-03
  weight for this iteration     100.00

 eigenvalues of (default mixing * dielectric matrix)
  average eigenvalue GAMMA=   2.5525
  8.3553  5.1675  3.7138  2.7136  2.3508  1.8973  1.2313  1.2313  1.0262  1.0262
  0.9581  0.9581

 Free energy of the ion-electron system (eV)
  ---------------------------------------------------
  alpha Z        PSCENC =         0.24409960
  Ewald energy   TEWEN  =       128.00218793
  -Hartree energ DENC   =      -283.80165481
  -exchange      EXHF   =         0.00000000
  -V(xc)+E(xc)   XCENC  =        24.71817678
  PAW double counting   =       464.69695475     -465.48311365
  entropy T*S    EENTRO =        -0.00000000
  eigenvalues    EBANDS =       -89.38127749
  atomic energy  EATOM  =       197.04175453
  Solvation  Ediel_sol  =         0.00000000
  ---------------------------------------------------
  free energy    TOTEN  =       -23.96287236 eV

  energy without entropy =      -23.96287236  energy(sigma->0) =      -23.96287236


--------------------------------------------------------------------------------------------------------




--------------------------------------- Iteration      1(  18)  ---------------------------------------


    POTLOK:  cpu time    1.6069: real time    1.6107
    SETDIJ:  cpu time    0.0062: real time    0.0063
     EDDAV:  cpu time    0.8700: real time    0.8721
       DOS:  cpu time    0.0001: real time    0.0001
    CHARGE:  cpu time    0.0969: real time    0.0971
    MIXING:  cpu time    0.0489: real time    0.0490
    --------------------------------------------
      LOOP:  cpu time    2.6290: real time    2.6352

 eigenvalue-minimisations  :    32
 total energy-change (2. order) :-0.3361033E-05  (-0.7705974E-07)
 number of electron       8.0000000 magnetization 
 augmentation part        0.1848073 magnetization 

 Broyden mixing:
  rms(total) = 0.48243E-04    rms(broyden)= 0.48197E-04
  rms(prec ) = 0.77021E-04
  weight for this iteration     100.00

 eigenvalues of (default mixing * dielectric matrix)
  average eigenvalue GAMMA=   2.5445
  8.4636  5.2562  3.9801  2.5499  2.5499  2.1503  1.5816  1.2701  1.2701  0.9766
  0.9766  1.0266  1.0266

 Free energy of the ion-electron system (eV)
  ---------------------------------------------------
  alpha Z        PSCENC =         0.24409960
  Ewald energy   TEWEN  =       128.00218793
  -Hartree energ DENC   =      -283.79466609
  -exchange      EXHF   =         0.00000000
  -V(xc)+E(xc)   XCENC  =        24.71780937
  PAW double counting   =       464.71107635     -465.49719255
  entropy T*S    EENTRO =        -0.00000000
  eigenvalues    EBANDS =       -89.38794485
  atomic energy  EATOM  =       197.04175453
  Solvation  Ediel_sol  =         0.00000000
  ---------------------------------------------------
  free energy    TOTEN  =       -23.96287572 eV

  energy without entropy =      -23.96287572  energy(sigma->0) =      -23.96287572


--------------------------------------------------------------------------------------------------------




--------------------------------------- Iteration      1(  19)  ---------------------------------------


    POTLOK:  cpu time    1.5830: real time    1.5867
    SETDIJ:  cpu time    0.0062: real time    0.0062
     EDDAV:  cpu time    0.4474: real time    0.4484
       DOS:  cpu time    0.0001: real time    0.0001
    CHARGE:  cpu time    0.0914: real time    0.0917
    MIXING:  cpu time    0.0514: real time    0.0515
    --------------------------------------------
      LOOP:  cpu time    2.1795: real time    2.1846

 eigenvalue-minimisations  :    16
 total energy-change (2. order) :-0.4001386E-05  (-0.1392436E-07)
 number of electron       8.0000000 magnetization 
 augmentation part        0.1848062 magnetization 

 Broyden mixing:
  rms(total) = 0.25271E-04    rms(broyden)= 0.25270E-04
  rms(prec ) = 0.45967E-04
  weight for this iteration     100.00

 eigenvalues of (default mixing * dielectric matrix)
  average eigenvalue GAMMA=   2.5289
  8.5262  5.4299  4.0429  3.2058  2.5926  2.3189  1.8688  1.2643  1.2040  0.9813
  0.9743  0.9743  1.0105  1.0105

 Free energy of the ion-electron system (eV)
  ---------------------------------------------------
  alpha Z        PSCENC =         0.24409960
  Ewald energy   TEWEN  =       128.00218793
  -Hartree energ DENC   =      -283.79549971
  -exchange      EXHF   =         0.00000000
  -V(xc)+E(xc)   XCENC  =        24.71780414
  PAW double counting   =       464.71940544     -465.50551693
  entropy T*S    EENTRO =        -0.00000000
  eigenvalues    EBANDS =       -89.38711472
  atomic energy  EATOM  =       197.04175453
  Solvation  Ediel_sol  =         0.00000000
  ---------------------------------------------------
  free energy    TOTEN  =       -23.96287972 eV

  energy without entropy =      -23.96287972  energy(sigma->0) =      -23.96287972


--------------------------------------------------------------------------------------------------------




--------------------------------------- Iteration      1(  20)  ---------------------------------------


    POTLOK:  cpu time    1.5636: real time    1.5672
    SETDIJ:  cpu time    0.0062: real time    0.0062
     EDDAV:  cpu time    0.8143: real time    0.8162
       DOS:  cpu time    0.0001: real time    0.0001
    --------------------------------------------
      LOOP:  cpu time    2.3841: real time    2.3897

 eigenvalue-minimisations  :    32
 total energy-change (2. order) :-0.6273444E-06  (-0.5261516E-08)
 number of electron       8.0000000 magnetization 
 augmentation part        0.1848062 magnetization 

 Free energy of the ion-electron system (eV)
  ---------------------------------------------------
  alpha Z        PSCENC =         0.24409960
  Ewald energy   TEWEN  =       128.00218793
  -Hartree energ DENC   =      -283.79332438
  -exchange      EXHF   =         0.00000000
  -V(xc)+E(xc)   XCENC  =        24.71767312
  PAW double counting   =       464.71801412     -465.50411916
  entropy T*S    EENTRO =        -0.00000000
  eigenvalues    EBANDS =       -89.38916611
  atomic energy  EATOM  =       197.04175453
  Solvation  Ediel_sol  =         0.00000000
  ---------------------------------------------------
  free energy    TOTEN  =       -23.96288035 eV

  energy without entropy =      -23.96288035  energy(sigma->0) =      -23.96288035


--------------------------------------------------------------------------------------------------------




 average (electrostatic) potential at core
  the test charge radii are     0.5201  0.6991
  (the norm of the test charge is              1.0000)
       1 -41.2702       2 -41.5822       3 -41.6464       4 -41.4741       5 -57.9776



 E-fermi :  -8.6948     XC(G=0):  -0.7055     alpha+bet : -0.2123


 k-point     1 :       0.0000    0.0000    0.0000
  band No.  band energies     occupation 
      1     -16.8812      2.00000
      2      -9.5143      2.00000
      3      -9.3631      2.00000
      4      -8.9360      2.00000
      5      -0.5371      0.00000
      6       0.9772      0.00000
      7       1.0127      0.00000
      8       1.0623      0.00000


--------------------------------------------------------------------------------------------------------


 soft charge-density along one line, spin component           1
         0         1         2         3         4         5         6         7         8         9
 total charge-density along one line

 pseudopotential strength for first ion, spin component:           1
 -2.339  -4.031  -0.001  -0.001   0.001
 -4.031  -6.858  -0.002  -0.003   0.003
 -0.001  -0.002  -0.340   0.001  -0.001
 -0.001  -0.003   0.001  -0.338  -0.002
  0.001   0.003  -0.001  -0.002  -0.339
 total augmentation occupancy for first ion, spin component:           1
  3.397  -0.614   0.152   0.273  -0.231
 -0.614   0.123  -0.029  -0.051   0.042
  0.152  -0.029   0.013   0.010  -0.009
  0.273  -0.051   0.010   0.026  -0.016
 -0.231   0.042  -0.009  -0.016   0.020


------------------------ aborting loop because EDIFF is reached ----------------------------------------


    CHARGE:  cpu time    0.0911: real time    0.0914
    FORLOC:  cpu time    0.1082: real time    0.1085
    FORNL :  cpu time    0.1524: real time    0.1527
    STRESS:  cpu time    0.5519: real time    0.5532
    FORCOR:  cpu time    1.6226: real time    1.6265
    FORHAR:  cpu time    0.5053: real time    0.5065
    MIXING:  cpu time    0.0495: real time    0.0496
    OFIELD:  cpu time    0.0000: real time    0.0000

  FORCE on cell =-STRESS in cart. coord.  units (eV):
  Direction    XX          YY          ZZ          XY          YZ          ZX
  --------------------------------------------------------------------------------------
  Alpha Z     0.24410     0.24410     0.24410
  Ewald      45.95965    41.47845    40.56406    -0.95031    -3.37010    -4.80092
  Hartree    96.99706    91.76779    95.02989    -0.61521    -0.44633    -1.41297
  E(xc)     -27.17801   -27.18206   -27.19249    -0.01081    -0.01746    -0.03548
  Local    -201.53510  -191.40761  -195.19342     1.63576     3.01079     5.55963
  n-local   -15.87760   -15.89477   -15.78776    -0.06249     0.04074    -0.09791
  augment     0.11476     0.11023     0.12358    -0.00166     0.00628     0.00312
  Kinetic   100.82026   100.86986   101.35346     0.57766     0.75367     1.86887
  Fock        0.00000     0.00000     0.00000     0.00000     0.00000     0.00000
  -------------------------------------------------------------------------------------
  Total      -0.45488    -0.01402    -0.85856     0.57294    -0.02241     1.08434
  in kB      -0.73436    -0.02263    -1.38607     0.92496    -0.03617     1.75057
  external pressure =       -0.71 kB  Pullay stress =        0.00 kB


 VOLUME and BASIS-vectors are now :
 -----------------------------------------------------------------------------
  energy-cutoff  :      400.00
  volume of cell :      992.43
      direct lattice vectors                 reciprocal lattice vectors
     9.813723600  0.000000000  0.000000000     0.101898122  0.000634305 -0.002895055
    -0.063567300 10.211780600  0.000000000     0.000000000  0.097926115 -0.002575686
     0.279732900  0.260469700  9.902910200     0.000000000 -0.000000000  0.100980417

  length of vectors
     9.813723600 10.211978448  9.910283820     0.101941213  0.097959982  0.100980417


 FORCES acting on ions
    electron-ion (+dipol)            ewald-force                    non-local-force                 convergence-correction
 -----------------------------------------------------------------------------------------------
   -.303E+02 0.200E+02 0.359E+02   0.324E+02 -.216E+02 -.387E+02   -.299E+01 0.194E+01 0.349E+01   0.372E-04 -.427E-04 -.584E-04
   0.519E+02 0.971E+01 0.780E+01   -.578E+02 -.109E+02 -.905E+01   0.553E+01 0.100E+01 0.697E+00   -.816E-04 -.156E-04 -.916E-05
   -.639E+01 -.532E+02 -.773E+00   0.727E+01 0.595E+02 0.102E+01   -.620E+00 -.574E+01 -.622E-01   -.273E-06 0.112E-03 0.105E-04
   -.106E+02 0.225E+02 -.465E+02   0.120E+02 -.246E+02 0.514E+02   -.995E+00 0.237E+01 -.482E+01   0.735E-05 -.391E-04 0.812E-04
   -.542E+01 0.191E+01 0.415E+01   0.616E+01 -.236E+01 -.464E+01   -.126E+00 -.467E+00 0.105E+00   -.101E-03 0.229E-04 0.542E-04
 -----------------------------------------------------------------------------------------------
   -.807E+00 0.891E+00 0.590E+00   -.178E-14 -.107E-13 -.711E-14   0.807E+00 -.891E+00 -.590E+00   -.139E-03 0.376E-04 0.784E-04


 POSITION                                       TOTAL-FORCE (eV/Angst)
 -----------------------------------------------------------------------------------
      5.70899      4.44229      3.60640        -0.860079      0.355872      0.731557
      3.98220      4.69205      4.25182        -0.380988     -0.212506     -0.551937
      5.16153      5.96055      4.42414         0.269445      0.550391      0.183590
      5.25274      4.42180      5.37604         0.358863      0.220168      0.013021
      5.03769      4.88856      4.40497         0.612759     -0.913926     -0.376231
 -----------------------------------------------------------------------------------
    total drift:                               -0.000037      0.000814     -0.000435


--------------------------------------------------------------------------------------------------------



  FREE ENERGIE OF THE ION-ELECTRON SYSTEM (eV)
  ---------------------------------------------------
  free  energy   TOTEN  =       -23.96288035 eV

  energy  without entropy=      -23.96288035  energy(sigma->0) =      -23.96288035



--------------------------------------------------------------------------------------------------------


    POTLOK:  cpu time    1.5413: real time    1.5449


--------------------------------------------------------------------------------------------------------


     LOOP+:  cpu time   54.0165: real time   54.1517
    4ORBIT:  cpu time    0.0000: real time    0.0000

 total amount of memory used by VASP MPI-rank0   274693. kBytes
=======================================================================

   base      :      30000. kBytes
   nonlr-proj:       1243. kBytes
   fftplans  :      86584. kBytes
   grid      :     154542. kBytes
   one-center:         15. kBytes
   wavefun   :       2309. kBytes

  
  
 General timing and accounting informations for this job:
 ========================================================
  
                  Total CPU time used (sec):       55.862
                            User time (sec):       54.269
                          System time (sec):        1.593
                         Elapsed time (sec):       56.012
  
                   Maximum memory used (kb):      396664.
                   Average memory used (kb):           0.
  
                          Minor page faults:       254537
                          Major page faults:            0
                 Voluntary context switches:          136
