1.117992899999999956e+01 0.000000000000000000e+00 0.000000000000000000e+00 1.504800000000000061e-02 1.425381499999999946e+01 0.000000000000000000e+00 -6.016099999999999920e-02 -7.107700000000000129e-02 1.114987499999999976e+01
1.107758899999999969e+01 0.000000000000000000e+00 0.000000000000000000e+00 2.203229999999999911e-01 1.443304599999999915e+01 0.000000000000000000e+00 -4.094600000000000323e-02 1.066980000000000012e-01 1.114829899999999974e+01
