1.104402699999999982e+01 5.774900000000000172e-02 1.088026100000000085e+01 1.096712699999999963e+01 7.383219000000000420e+00 1.055556200000000011e+01 1.101402700000000046e+01 1.238393999999999995e+00 1.000316100000000041e+01 1.092342700000000022e+01 8.395538999999999419e+00 9.521841999999999473e+00 1.011857000000000006e+00 1.389498000000000033e+01 3.312981999999999871e+00 9.417470000000000008e-01 6.517718999999999596e+00 3.192912000000000194e+00 8.932130000000000347e-01 1.367077000000000098e+00 9.086261999999999617e+00 8.095959999999999823e-01 8.422238999999999365e+00 8.665730999999999185e+00 9.525970000000000271e-01 1.334238000000000035e+01 1.076556199999999919e+01 8.345749999999999558e-01 6.561158999999999963e+00 1.058816200000000052e+01 1.045752700000000068e+01 2.853499999999999925e+00 2.197881999999999891e+00 1.042282699999999984e+01 1.034858999999999973e+01 2.235421999999999798e+00 1.104322699999999990e+01 1.099807999999999986e+01 5.955472000000000321e+00 1.048680000000000029e-01 3.573360000000000092e+00 6.270832000000000406e+00 3.900900000000000201e-02 1.202347999999999928e+01 6.915371999999999630e+00 7.051899999999999835e-02 4.732539000000000051e+00 7.011911999999999701e+00 1.918867000000000100e+00 6.973580000000000334e-01 5.112592000000000247e+00 1.911186999999999969e+00 7.816538999999999682e+00 4.825161999999999729e+00 2.101716999999999835e+00 1.308548000000000044e+01 3.154581999999999997e+00 1.970806999999999976e+00 5.547598999999999947e+00 3.289531999999999901e+00 1.820916999999999897e+00 3.240549999999999820e-01 9.040031000000000816e+00 1.791077000000000030e+00 7.445599999999999774e+00 8.733622000000000440e+00 2.719746999999999915e+00 2.308549000000000184e+00 1.216021999999999936e+00 2.843586999999999865e+00 9.108399000000000356e+00 1.482671999999999990e+00 2.746357000000000159e+00 3.400440000000000129e+00 3.446580000000000199e-01 2.701817000000000135e+00 1.001037999999999961e+01 3.906850000000000045e-01 3.134167000000000147e+00 1.421857999999999933e+01 4.977342000000000155e+00 2.921227000000000018e+00 6.841868999999999978e+00 5.042671999999999599e+00 3.195357000000000003e+00 1.316817999999999955e+01 4.024831999999999965e+00 2.916256999999999877e+00 5.691499000000000308e+00 4.305171999999999777e+00 3.347627000000000130e+00 1.084337999999999980e+01 7.698541999999999774e+00 3.666967000000000088e+00 4.107008999999999688e+00 7.780382000000000353e+00 3.746126999999999985e+00 2.137598999999999805e+00 2.128821999999999992e+00 3.971446999999999949e+00 9.189590000000000813e+00 2.355852000000000057e+00 3.645706999999999809e+00 1.100078000000000067e+01 2.973089999999999899e-01 3.831157000000000146e+00 4.308410000000000295e+00 4.762819999999999832e-01 4.571767000000000358e+00 2.951150000000000162e+00 5.997442000000000384e+00 4.802686999999999706e+00 1.025404999999999944e+01 6.067231999999999736e+00 4.063476999999999784e+00 1.201497900000000030e+01 7.939741999999999855e+00 4.791957000000000022e+00 4.943139999999999645e+00 7.948491999999999891e+00 4.768397000000000219e+00 3.111130000000000173e+00 2.172591999999999857e+00 4.813377000000000017e+00 1.030120999999999931e+01 2.237562000000000051e+00 5.446026999999999951e+00 1.420017000000000085e+00 9.885771999999999338e+00 5.441187000000000218e+00 8.497438999999999965e+00 9.753491000000000355e+00 5.421956999999999915e+00 4.150610000000000133e-01 1.084136200000000017e+01 5.413346999999999909e+00 7.521929000000000087e+00 1.070956100000000077e+01 5.602706999999999660e+00 1.142378000000000071e+01 6.292691999999999730e+00 5.710106999999999822e+00 3.741909999999999847e+00 6.064892000000000394e+00 5.239047000000000232e+00 1.229978000000000016e+01 7.241331999999999880e+00 5.840436999999999657e+00 4.696189000000000391e+00 7.081502000000000407e+00 6.401377000000000095e+00 1.381077999999999939e+01 3.210031999999999996e+00 6.310607000000000077e+00 6.322579000000000171e+00 3.508291999999999966e+00 6.508646999999999849e+00 1.405747000000000080e+00 8.938762000000000540e+00 6.551357000000000319e+00 8.417389999999999262e+00 8.918060999999999794e+00 6.376096999999999682e+00 1.365207999999999977e+01 1.073776100000000078e+01 6.359307000000000265e+00 6.527759999999999785e+00 1.083976200000000034e+01 7.356417000000000428e+00 6.289780000000000371e-01 4.982061999999999991e+00 7.428276999999999575e+00 7.582298999999999900e+00 5.108842000000000105e+00 7.373986999999999625e+00 1.285347900000000010e+01 3.259472000000000147e+00 7.453206999999999915e+00 5.432279000000000302e+00 3.431922000000000139e+00 7.400356999999999630e+00 3.349130000000000162e-01 8.883020999999999390e+00 7.502027000000000001e+00 7.408439000000000441e+00 9.069160999999999362e+00 8.337616999999999834e+00 2.134228999999999932e+00 1.249951999999999952e+00 8.472637000000000640e+00 9.322129999999999583e+00 1.357452000000000103e+00 8.379637000000000668e+00 3.252219999999999889e+00 4.321300000000000141e-01 8.331766999999999257e+00 1.037598999999999982e+01 4.213109999999999911e-01 8.464076999999999629e+00 1.404568000000000083e+01 5.076162000000000063e+00 8.481327000000000282e+00 6.675599000000000061e+00 5.247671999999999670e+00 8.465616999999999948e+00 1.291827999999999932e+01 4.191022000000000247e+00 8.420787000000000688e+00 5.547760000000000247e+00 4.402351999999999599e+00 9.016436999999999813e+00 1.146218000000000004e+01 7.655642000000000280e+00 9.216647000000000034e+00 3.991400000000000059e+00 7.997452000000000005e+00 9.351706999999999326e+00 1.973149999999999959e+00 2.214442000000000021e+00 9.460896999999999224e+00 9.329050000000000509e+00 2.307402000000000175e+00 9.331827000000000538e+00 1.132948000000000022e+01 4.343960000000000043e-01 9.429586999999999719e+00 4.137629999999999697e+00 5.023720000000000407e-01 1.025612699999999933e+01 2.638269999999999893e+00 6.393671000000000326e+00 9.902827000000000268e+00 1.018731000000000009e+01 5.896772000000000347e+00 1.015502700000000047e+01 1.227197999999999922e+01 7.724452000000000318e+00 1.023182699999999912e+01 4.970860000000000056e+00 7.907771999999999579e+00 1.252949999999999897e-01 1.383838000000000079e+01 2.643062000000000022e+00 1.431250000000000022e-01 6.402730000000000032e+00 2.499931999999999821e+00 1.036202699999999943e+01 -1.118119999999999947e-01 4.895300000000000207e-01 1.014652700000000074e+01 7.394898999999999667e+00 4.379999999999999866e-02 1.019452700000000078e+01 1.931799000000000044e+00 1.002836100000000030e+01 1.007912699999999973e+01 9.050750000000000739e+00 9.403211999999999904e+00 1.076896999999999993e+00 2.111169999999999991e+00 8.357172000000000267e+00 8.520680000000000476e-01 9.163149999999999906e+00 7.878452000000000233e+00 9.499969999999999803e-01 1.249108000000000018e+01 1.668590000000000073e-01 8.919270000000000254e-01 5.838119999999999976e+00 1.701660000000000117e-01 1.284250000000000114e-01 2.697280000000000122e+00 2.863161999999999985e+00 1.533049999999999968e-01 1.041782899999999934e+01 2.864311999999999969e+00 5.315619999999999790e-01 1.100328000000000017e+01 5.050341999999999665e+00 9.595470000000000388e-01 3.389228999999999825e+00 5.567181999999999853e+00 9.601570000000000382e-01 1.269427999999999912e+01 6.969351999999999769e+00 8.021040000000000392e-01 5.488719999999999821e+00 6.688521999999999856e+00 1.784526999999999974e+00 1.385008999999999935e+00 5.967302000000000106e+00 1.975506999999999902e+00 8.743779999999999220e+00 5.395722000000000129e+00 2.025447000000000219e+00 1.229428000000000054e+01 2.380862000000000034e+00 1.860047000000000006e+00 4.667199000000000098e+00 2.659031999999999840e+00 1.854027000000000092e+00 1.595269000000000048e+00 1.181262000000000034e+00 2.091296999999999962e+00 8.334780000000000300e+00 1.597722000000000087e+00 1.949416999999999955e+00 3.482180000000000053e+00 1.074836200000000019e+01 1.775676999999999950e+00 9.958619999999999806e+00 1.093196200000000040e+01 2.711806999999999856e+00 5.650730000000000475e-01 8.465002000000000137e+00 2.410477000000000203e+00 7.416729000000000127e+00 7.852351999999999776e+00 2.412106999999999779e+00 1.068177999999999983e+01 8.313181999999999405e+00 2.815027000000000168e+00 4.282888999999999946e+00 8.462941999999999965e+00 4.002146999999999899e+00 2.336679999999999868e-01 5.556201999999999863e+00 3.692886999999999809e+00 7.084058999999999884e+00 5.820012000000000185e+00 4.104726999999999570e+00 1.257788000000000039e+01 3.922352000000000061e+00 3.583667000000000158e+00 4.857959000000000138e+00 4.533932000000000073e+00 3.705747000000000124e+00 1.314360999999999891e+00 2.838832000000000022e+00 4.227746999999999922e+00 8.497379999999999711e+00 3.204002000000000017e+00 3.567937000000000136e+00 1.178208000000000055e+01 1.065916200000000025e+01 3.805477000000000221e+00 5.191969000000000278e+00 1.106106199999999973e+01 4.433307000000000109e+00 2.235059999999999825e+00 5.188462000000000351e+00 5.081546999999999592e+00 9.491569999999999396e+00 5.305531000000000219e+00 3.641056999999999988e+00 1.267437900000000006e+01 8.737201999999999913e+00 4.828717000000000148e+00 5.754838999999999594e+00 8.684901999999999234e+00 4.809136999999999773e+00 2.303040000000000198e+00 9.911160999999999888e+00 4.718917000000000250e+00 9.287589999999999790e+00 9.665551999999999921e+00 4.721646999999999927e+00 4.433469999999999911e-01 4.730429999999999913e-01 4.566126999999999825e+00 7.598279999999999923e+00 2.083919999999999939e-01 5.580667000000000044e+00 2.938089999999999868e+00 2.860831999999999820e+00 5.570706999999999631e+00 1.049507999999999974e+01 3.007232000000000127e+00 5.576327000000000034e+00 1.383788000000000018e+01 2.481732000000000049e+00 5.436296999999999713e+00 6.159648999999999930e+00 2.821562000000000126e+00 6.458777000000000434e+00 1.158587999999999951e+01 5.694402000000000186e+00 6.515587000000000018e+00 3.592290000000000205e+00 5.300951999999999664e+00 5.743367000000000111e+00 1.323227999999999938e+01 7.423521000000000036e+00 6.761586999999999570e+00 5.357809999999999739e+00 7.142952000000000190e+00 6.567827000000000304e+00 2.197049999999999947e+00 8.177761999999999531e+00 6.639037000000000077e+00 9.145269000000000759e+00 8.062331999999999610e+00 6.362766999999999840e+00 1.301557999999999993e+01 3.797539999999999805e-01 6.266547000000000089e+00 5.787978999999999985e+00 4.586859999999999826e-01 7.185026999999999830e+00 1.438484000000000096e+00 5.682211999999999819e+00 7.390666999999999653e+00 8.451240000000000308e+00 5.796482000000000134e+00 7.296127000000000251e+00 1.196617999999999959e+01 2.600811999999999902e+00 7.414037000000000432e+00 4.719909000000000354e+00 2.624871999999999872e+00 7.514766999999999975e+00 1.414393999999999929e+00 1.168552000000000035e+00 7.694237000000000215e+00 8.567190000000000083e+00 1.390571999999999919e+00 7.454277000000000264e+00 3.474239999999999995e+00 1.095866200000000035e+01 7.437197000000000280e+00 1.028663000000000061e+01 1.087976199999999949e+01 8.255877999999999162e+00 3.148850000000000260e-01 8.224871999999999517e+00 8.277827000000000268e+00 7.458188999999999957e+00 8.309241000000000099e+00 8.178437000000000623e+00 1.160097999999999985e+01 8.388911999999999480e+00 8.417026999999999148e+00 4.134900000000000020e+00 8.768651999999999447e+00 9.333736999999999284e+00 1.424178000000000033e+01 5.783362000000000336e+00 9.347367000000000203e+00 6.797818999999999612e+00 5.867332000000000214e+00 9.194217000000000084e+00 1.209448000000000079e+01 4.238432000000000421e+00 9.216167000000000442e+00 4.817209000000000074e+00 4.356002000000000152e+00 9.425516999999999257e+00 1.108673999999999937e+00 2.852371999999999908e+00 9.573506999999999323e+00 8.531660000000000466e+00 3.026942000000000021e+00 9.092356999999999800e+00 1.210697900000000082e+01 1.087666100000000036e+01 9.373167000000000471e+00 4.953338999999999714e+00 1.106956199999999946e+01 1.036102699999999999e+01 1.626189000000000107e+00 5.886701999999999657e+00 9.751276999999999973e+00 9.326489000000000473e+00 5.179972000000000243e+00 1.027712700000000012e+01 1.301407999999999987e+01 8.517312000000000438e+00 1.019932799999999951e+01 5.803359999999999630e+00 8.564132000000000744e+00 9.048359999999999737e-01 5.739509999999999890e-01 4.251312000000000424e+00 9.012710000000000443e-01 7.613648999999999667e+00 3.962401999999999980e+00 1.036362699999999926e+01 1.133008000000000060e+01 1.305641999999999969e+00 1.049582700000000024e+01 3.966720000000000024e+00 1.347512000000000043e+00 1.854637000000000091e+00 1.346438000000000024e+01 9.816691000000000500e+00 1.874716999999999967e+00 6.468379999999999797e+00 9.663261000000000323e+00 3.531817000000000206e+00 3.161118999999999790e+00 6.851691999999999894e+00 3.699076999999999948e+00 9.975199999999999179e+00 6.759701999999999877e+00 4.659856999999999694e+00 1.121657899999999941e+01 1.239741999999999900e+00 4.849477000000000260e+00 4.100209000000000437e+00 1.314732000000000012e+00 6.346676999999999680e+00 5.472460000000000102e-01 4.107521000000000200e+00 6.328776999999999653e+00 7.431979000000000113e+00 4.301472000000000406e+00 7.335007000000000055e+00 1.359528000000000070e+01 9.816522000000000858e+00 7.376007000000000424e+00 6.421498999999999846e+00 9.951662000000000674e+00 9.231816999999999496e+00 2.874249999999999972e+00 7.241901999999999617e+00 8.906377000000000876e+00 1.043664000000000058e+01 6.756812000000000040e+00
1.010800000000000066e-02 3.918189999999999729e-01 1.066367400000000032e+01 1.093555699999999931e+01 8.002186000000000021e+00 1.053797400000000017e+01 1.104545800000000000e+01 1.367436000000000096e+00 9.696623999999999910e+00 1.103005800000000036e+01 9.031565999999999761e+00 9.638434000000000168e+00 1.080837000000000048e+00 1.389769599999999983e+01 3.633694000000000202e+00 7.419040000000000079e-01 6.770336000000000354e+00 3.535054000000000141e+00 1.052318000000000087e+00 1.538635999999999893e+00 8.824313999999999325e+00 1.048707000000000056e+00 9.064916000000000196e+00 8.751863999999999422e+00 1.346537000000000095e+00 1.395839600000000047e+01 1.074307400000000001e+01 8.220969999999999667e-01 6.943495999999999668e+00 1.053327400000000047e+01 1.041595700000000058e+01 2.954645999999999884e+00 2.019553999999999849e+00 1.040195699999999945e+01 1.049947599999999959e+01 2.258973999999999815e+00 1.121285699999999963e+01 1.111929600000000029e+01 5.965764000000000067e+00 1.429499999999999937e-01 3.719545999999999797e+00 5.806604000000000099e+00 1.121865799999999957e+01 1.230399599999999971e+01 6.749164000000000385e+00 3.082579999999999765e-01 4.769525999999999932e+00 6.730903999999999776e+00 1.869127999999999901e+00 6.531120000000000259e-01 5.363643999999999856e+00 1.956868000000000052e+00 7.806816000000000422e+00 5.219713999999999743e+00 2.239577000000000151e+00 1.310809500000000050e+01 3.425774000000000097e+00 1.682766999999999902e+00 5.738856000000000179e+00 3.412824000000000080e+00 2.117027000000000214e+00 6.831009999999999582e-01 8.966613999999999862e+00 1.930557999999999996e+00 7.979505999999999766e+00 8.782213999999999743e+00 2.682307000000000219e+00 2.475416000000000061e+00 1.124843999999999955e+00 2.763476999999999961e+00 9.308835999999999444e+00 1.253484000000000043e+00 2.712577000000000016e+00 3.661475999999999953e+00 4.182009999999999894e-01 2.782767000000000213e+00 1.052516600000000047e+01 4.215849999999999875e-01 3.254697000000000173e+00 1.435359599999999958e+01 5.270894000000000190e+00 3.031486999999999821e+00 6.839665000000000106e+00 5.154124000000000372e+00 3.358527000000000040e+00 1.340839599999999976e+01 4.261853999999999587e+00 2.863096999999999781e+00 5.821036000000000321e+00 4.203774000000000122e+00 3.616636999999999880e+00 1.148379500000000064e+01 7.862744000000000177e+00 3.506057000000000201e+00 4.341815999999999676e+00 7.653754000000000168e+00 3.717776999999999887e+00 2.238745999999999903e+00 2.059003999999999834e+00 3.834797000000000011e+00 9.170595000000000496e+00 2.186253999999999920e+00 3.799907999999999841e+00 1.145819599999999916e+01 6.338030000000000053e-01 3.769016999999999840e+00 4.504996000000000222e+00 6.660509999999999486e-01 4.591497000000000384e+00 3.162835999999999981e+00 6.038223999999999592e+00 4.422107999999999706e+00 1.054809599999999925e+01 5.954824000000000339e+00 4.795557999999999765e+00 1.229049599999999920e+01 7.991214000000000262e+00 4.632457999999999743e+00 5.171845000000000248e+00 7.843403999999999598e+00 4.729108000000000089e+00 3.168876000000000026e+00 2.254944000000000059e+00 4.853267999999999915e+00 1.011820600000000070e+01 2.239074000000000009e+00 5.316317999999999877e+00 1.296635999999999900e+00 1.003367399999999954e+01 5.732158000000000087e+00 8.695785000000000764e+00 9.515534000000000603e+00 5.465247999999999884e+00 1.109399999999999969e-01 1.076487400000000072e+01 5.490158000000000094e+00 7.780905999999999878e+00 1.056267399999999945e+01 5.656918000000000113e+00 1.125889600000000002e+01 6.051844000000000001e+00 5.728197999999999901e+00 3.949415999999999816e+00 6.114213999999999594e+00 5.808658000000000321e+00 1.221329599999999971e+01 7.058754000000000417e+00 5.713108000000000075e+00 4.989285999999999888e+00 7.018854000000000148e+00 6.386428000000000438e+00 1.397989600000000010e+01 3.423353999999999786e+00 6.466478000000000392e+00 6.753715999999999831e+00 3.394854000000000038e+00 6.266878000000000171e+00 1.661296000000000106e+00 9.089143999999999224e+00 6.917686999999999919e+00 8.589266000000000290e+00 8.790653999999999968e+00 6.796797999999999895e+00 1.380379600000000018e+01 1.061797400000000025e+01 6.404157999999999795e+00 6.758455999999999797e+00 1.077837399999999946e+01 7.202378000000000391e+00 5.884899999999999576e-01 5.201923999999999992e+00 7.595278000000000418e+00 7.694325000000000081e+00 5.132503999999999955e+00 7.418657999999999753e+00 1.302939600000000020e+01 3.292184000000000221e+00 7.363068000000000168e+00 5.682266000000000261e+00 3.363614000000000104e+00 7.339497999999999855e+00 7.620059999999999611e-01 8.951093999999999440e+00 7.760618000000000016e+00 7.439136000000000415e+00 9.116004000000000218e+00 8.373167999999999722e+00 2.113795999999999786e+00 1.058573999999999904e+00 8.367737999999999232e+00 9.584255000000000635e+00 1.441823999999999995e+00 8.279707999999999402e+00 3.344386000000000081e+00 3.938769999999999771e-01 8.451878000000000668e+00 1.051755499999999977e+01 3.986310000000000131e-01 8.456327999999999179e+00 1.405949599999999933e+01 5.210784000000000304e+00 8.635037000000000518e+00 6.800525999999999627e+00 5.077403999999999584e+00 8.435867000000000004e+00 1.300489499999999943e+01 4.290294000000000274e+00 8.566698000000000590e+00 5.737815999999999583e+00 4.128624000000000294e+00 9.169078000000000728e+00 1.139589600000000047e+01 7.751473999999999975e+00 9.293888000000000815e+00 3.971725999999999868e+00 7.800023999999999624e+00 9.487057999999999325e+00 1.926816000000000084e+00 1.915913999999999895e+00 9.436438000000000770e+00 9.488405000000000200e+00 2.351564000000000210e+00 9.433137999999999579e+00 1.151269500000000079e+01 4.139929999999999999e-01 9.362978000000000023e+00 4.294445999999999763e+00 5.387629999999999919e-01 1.011785800000000002e+01 2.861655999999999977e+00 5.886014000000000301e+00 1.015695799999999949e+01 1.022458499999999937e+01 5.968253999999999948e+00 1.019895700000000005e+01 1.243979599999999941e+01 7.680233999999999561e+00 1.041415800000000047e+01 4.851085999999999565e+00 7.765564000000000355e+00 1.125885800000000003e+01 1.376239600000000074e+01 3.007223999999999897e+00 1.095175700000000063e+01 6.760466000000000086e+00 2.920783999999999825e+00 1.029925700000000077e+01 1.387589999999999935e-01 1.851069999999999938e-01 1.016415800000000047e+01 7.794906000000000112e+00 6.102400000000000185e-02 1.021125800000000083e+01 2.082685999999999815e+00 9.707504000000000133e+00 1.029695800000000006e+01 9.839786000000000143e+00 9.678544000000000480e+00 1.152327000000000101e+00 2.256225999999999843e+00 8.009154000000000551e+00 1.190978000000000092e+00 9.771646000000000498e+00 7.996573999999999849e+00 1.343207999999999958e+00 1.308699599999999919e+01 3.628370000000000206e-01 7.520229999999999970e-01 6.084816000000000003e+00 1.118360000000000049e-01 1.573199999999999876e-01 2.872895999999999894e+00 2.712263999999999786e+00 1.130915700000000079e+01 1.059159599999999912e+01 2.838724000000000025e+00 9.630079999999999751e-01 1.087659599999999926e+01 5.253534000000000148e+00 8.201300000000000257e-01 3.644165999999999794e+00 4.994023999999999575e+00 9.501380000000000381e-01 1.301509599999999978e+01 6.644523999999999653e+00 1.146177999999999919e+00 5.446326000000000001e+00 6.566624000000000017e+00 1.916916999999999982e+00 1.563525999999999971e+00 6.021743999999999986e+00 1.911257999999999901e+00 8.565505999999999176e+00 6.046833999999999598e+00 2.210716999999999821e+00 1.231499600000000072e+01 2.706494000000000177e+00 1.577077000000000062e+00 4.940794999999999604e+00 2.668703999999999965e+00 1.868168000000000051e+00 1.760296000000000083e+00 1.154603999999999964e+00 1.998167999999999944e+00 8.619175999999999505e+00 1.046504000000000101e+00 1.935478000000000032e+00 4.039066000000000045e+00 1.079937400000000025e+01 1.953837999999999964e+00 1.081799600000000083e+01 1.087637400000000021e+01 2.905546999999999880e+00 7.567150000000000265e-01 8.168423999999999907e+00 2.744476999999999833e+00 8.036576000000000164e+00 8.036353999999999331e+00 2.711117000000000221e+00 1.150789600000000057e+01 8.532743999999999218e+00 2.611836999999999964e+00 4.554476000000000191e+00 8.267604000000000397e+00 3.811678000000000122e+00 1.521699999999999962e-02 5.984854000000000340e+00 3.951156999999999808e+00 6.841496000000000244e+00 5.760343999999999909e+00 4.226528000000000063e+00 1.269729500000000044e+01 4.241103999999999985e+00 3.725766999999999829e+00 5.187216000000000271e+00 4.110993999999999815e+00 3.722348000000000212e+00 1.420147000000000048e+00 2.771094000000000168e+00 3.867126999999999981e+00 8.275636000000000436e+00 2.811674000000000007e+00 3.723336999999999897e+00 1.236569599999999980e+01 8.043999999999999762e-02 3.745776999999999912e+00 5.473635999999999946e+00 5.484499999999999792e-02 4.599628000000000050e+00 2.353146000000000182e+00 5.331363999999999770e+00 4.187158000000000158e+00 9.837656000000000844e+00 5.206903999999999755e+00 4.861457999999999835e+00 1.296409599999999962e+01 8.815903999999999741e+00 4.574987000000000137e+00 6.077405999999999864e+00 8.430813999999999808e+00 4.362597000000000058e+00 1.808805999999999914e+00 1.013417399999999979e+01 4.934388000000000218e+00 9.460765999999999565e+00 9.228153999999999968e+00 5.010487999999999609e+00 1.408549599999999913e+01 3.286379999999999857e-01 4.678747999999999685e+00 7.756386000000000003e+00 8.594699999999999562e-02 5.520267999999999731e+00 3.039735999999999994e+00 3.000783999999999896e+00 5.635227999999999682e+00 9.881185999999999581e+00 2.976334000000000035e+00 5.600838000000000427e+00 1.404189599999999949e+01 2.694723999999999897e+00 5.642998000000000403e+00 6.749435000000000073e+00 2.633233999999999853e+00 6.364408000000000065e+00 1.104279499999999992e+01 5.255174000000000234e+00 6.605398000000000103e+00 3.867665999999999826e+00 5.494174000000000113e+00 6.720328000000000301e+00 1.277109500000000075e+01 7.082303999999999711e+00 6.582288000000000139e+00 5.717226000000000141e+00 7.083064000000000249e+00 6.224108000000000196e+00 2.471645999999999788e+00 8.379713999999999885e+00 7.150868000000000002e+00 9.290905999999999665e+00 8.033554000000000528e+00 6.925667999999999935e+00 1.281879499999999972e+01 8.232699999999999740e-02 6.288278000000000034e+00 5.907756000000000007e+00 3.969809999999999728e-01 7.305997999999999770e+00 1.342551000000000050e+00 6.000543999999999656e+00 7.729338000000000264e+00 8.477975999999999956e+00 5.901974000000000053e+00 7.292207999999999579e+00 1.230129499999999965e+01 2.504664000000000001e+00 7.223537000000000319e+00 4.863375999999999699e+00 2.664343999999999824e+00 7.617708000000000368e+00 1.374316000000000093e+00 9.488940000000000152e-01 7.540528000000000119e+00 8.877544999999999575e+00 1.432244000000000073e+00 7.354648000000000074e+00 3.707485999999999837e+00 1.102247400000000077e+01 7.623086999999999946e+00 1.070849600000000024e+01 1.081867399999999968e+01 8.114008000000000109e+00 9.191030000000000033e-01 8.102563999999999211e+00 8.749147000000000673e+00 7.352616000000000263e+00 8.609714000000000311e+00 8.431217000000000183e+00 1.151689499999999988e+01 8.596524000000000498e+00 8.547558000000000433e+00 4.068825999999999610e+00 8.590844000000000591e+00 9.265696999999999406e+00 1.421269599999999933e+01 5.931123999999999619e+00 9.471078000000000330e+00 6.925165999999999933e+00 5.758723999999999954e+00 9.212968000000000046e+00 1.228449499999999972e+01 4.363684000000000118e+00 9.363697999999999411e+00 4.944825999999999944e+00 4.076853999999999978e+00 9.507168000000000063e+00 9.861349999999999838e-01 2.396764000000000117e+00 9.483147999999999911e+00 8.761684999999999945e+00 3.147963999999999984e+00 9.380297999999999803e+00 1.250009499999999996e+01 1.090407399999999960e+01 9.251977999999999369e+00 5.266896000000000022e+00 1.102387399999999928e+01 1.016995799999999939e+01 1.909116000000000035e+00 5.278623999999999761e+00 1.019435799999999936e+01 9.286875999999999465e+00 5.354943999999999704e+00 1.003175700000000070e+01 1.336669499999999999e+01 8.266334000000000515e+00 1.066055799999999998e+01 5.463175999999999810e+00 8.643183999999999756e+00 7.727190000000000447e-01 4.469650000000000012e-01 4.546984000000000137e+00 8.945680000000000298e-01 7.764485999999999777e+00 4.422234000000000442e+00 1.045155800000000035e+01 1.148819499999999927e+01 1.295873999999999970e+00 1.029595800000000061e+01 4.164325999999999972e+00 1.427154000000000034e+00 2.401066999999999840e+00 1.412199599999999933e+01 9.878854000000000468e+00 1.874427000000000065e+00 6.975716000000000250e+00 9.687374000000000152e+00 3.547236999999999973e+00 3.293156000000000194e+00 6.856244000000000227e+00 3.426318000000000197e+00 1.056559599999999932e+01 6.880244000000000248e+00 4.875948000000000171e+00 1.123419600000000074e+01 1.516383999999999954e+00 4.824098000000000219e+00 4.262465999999999866e+00 1.531244000000000050e+00 6.122527999999999970e+00 5.245440000000000103e-01 4.388373999999999775e+00 6.582408000000000037e+00 7.737636000000000180e+00 4.291383999999999865e+00 7.717628000000000377e+00 1.405099599999999960e+01 9.687604000000000326e+00 7.577277999999999736e+00 6.594515999999999600e+00 1.010327400000000075e+01 9.134638000000000702e+00 2.995026000000000188e+00 6.839223999999999748e+00 9.083707999999999672e+00 1.028865500000000033e+01 6.945173999999999737e+00
