-1.801330687773760292e+04
-1.801288204473120277e+04
