1.152958591216000084e+00 6.306335456549000407e-01 -1.072954339500000076e+00 -2.202780970955999784e+00 3.102826038834999967e+00 -1.599760561095999956e+00 5.960635184063000080e-01 -2.382651762015000063e+00 1.053058370420000056e+00 1.486295713226999937e-01 -1.314704389185999966e+00 1.508426999562000104e+00 -1.284453301350999999e+00 5.672545624417000276e-01 -8.273730887058999839e-01 1.450420336806000021e+00 -4.324441574228999885e-01 7.108077473035000482e-01 -3.517544495518999947e-01 -1.884983597613000050e+00 1.107056168826999976e+00 -3.832653780306000124e-01 5.755754242242999696e-01 -3.623561371192999814e-01 -2.627815465623999813e+00 1.814406039230999967e+00 -6.500921700541000270e-01 2.429722750878000159e+00 -2.439046342969000136e+00 -1.262077503086999897e-01 -1.151948404709000062e+00 1.398593063849999929e+00 -1.416621897673999930e+00 4.245063900398999834e-01 4.540262560816999970e-01 -5.453387345675999587e-01 1.328758811446999921e+00 5.375991992531999886e-01 -1.951407795638000042e+00 6.839587434252000220e-01 -1.022766659151000068e+00 -1.340430078008999937e+00 1.190968240531000033e+00 4.688946896640999729e-02 -1.582124848974000075e+00 7.332655637645000279e-01 1.181313490328999904e+00 -1.041598962774000103e+00 8.483453216492999882e-01 -1.133188091979999979e-01 3.027379067811999946e-01 6.454796106380999987e-01 -9.976138121552999838e-01 3.869459124809999928e-02 6.172326978665999553e-01 -2.180804979263000209e+00 -5.852926522382000396e-01 -1.373113172507000046e+00 3.656839161896999757e-01 6.577473731784999611e-02 5.257772660342000526e-01 4.086349690393000222e-01 8.297369611289999725e-01 2.440311325819000121e-01 -7.949352774682999501e-01 -7.372150356256000625e-02 -1.131416601770000030e+00 -5.889089091047999824e-01 -5.296503761258000154e-01 8.118798770085999816e-01 -9.156470372486999465e-03 -8.316182374526999432e-02 1.562216281488000069e+00 5.490699197541000220e-01 8.536909026312999860e-01 7.532782609364000459e-01 -5.364319183307000305e-01 2.029887640176999852e+00 -2.288906762646999993e-01 -5.591134207835000147e-01 -2.224626607708000137e-01 1.634470970587000027e-01 1.936670488325999973e+00 1.272467074626999928e+00 -3.039864345696000059e-01 1.557799125927000095e+00 2.767417378852999876e-01 4.333594702166999879e-02 -1.255407289657000103e+00 -5.760580203238000463e-01 -7.622341852473000223e-01 1.089033505651000100e+00 1.038603113146000068e+00 -3.994106215382999814e-01 8.525621882592000489e-01 9.378307740921999480e-01 -2.919847812262999984e-02 6.260834640503000204e-01 5.123998152863999955e-01 -5.664492928714000008e-01 -1.435107616564000044e-01 2.276992269706999972e-01 2.004232656695999815e+00 2.751178547183000145e+00 2.031891558130000108e-01 -9.187796695744999687e-01 -8.661147311453000486e-02 -7.361480277340000100e-01 -5.019156271422999804e-01 9.506235559373999999e-01 3.793763270982000169e-01 9.834915127659999978e-01 2.743210440780000092e-01 -4.363319228036000030e-01 -6.602644833615000097e-01 5.341017273614999672e-01 1.325429232604000029e+00 -3.550012388666000107e-01 -5.881177806028999866e-01 -2.640651699116000062e-01 -4.030222504188000210e-01 -2.213455677858000126e+00 1.425527685468999939e-01 -7.960225970763999959e-01 4.368895951208999762e-01 -1.083071116973999937e+00 1.240933006219000045e+00 4.802491962934000158e-01 -4.842853143376000258e-01 1.463830183455999912e+00 -1.064033125084000025e-01 -8.078936383693999801e-01 -6.867900424380000146e-01 2.878627883300999835e-01 -4.963877549324000049e-01 -2.486999477393000202e+00 -5.722247623341999989e-02 2.014983982477999813e+00 -5.318139595976999479e-01 -2.454060043890999854e+00 -1.408556346454000074e+00 1.091460884326999947e+00 -3.954230973474999744e-01 -6.232966451256000129e-01 -1.448985918245000004e+00 9.466509441460999597e-01 1.268679325167000105e+00 1.447707308547999894e+00 1.350531943085000020e+00 -4.026988056169999997e-01 -7.491349278823999924e-01 7.582145222645999549e-01 1.177771024129000040e-02 1.296450069597999910e+00 2.882075732898000120e-01 -3.589707653338999882e-01 -7.485780268959999484e-01 1.792221016836000047e-01 -5.529486862729999785e-01 -2.331828762029000135e-01 1.552956709870999985e+00 -1.378082343957999889e+00 -2.111544340019000099e-01 6.973163966770999922e-01 -2.774400495560000110e-02 1.112259310683999941e-01 -1.011483886306000057e+00 -1.665743300674999983e-01 -6.736578749500999885e-01 9.524184431884999968e-01 6.759464140449999991e-01 -5.487207639186999497e-01 5.172923678576000217e-01 7.939469453391999609e-01 1.749646373517000031e+00 -1.983945365685999995e+00 6.569529022422999909e-02 -2.724350883461999828e+00 1.346996933083999926e+00 2.694439181270000261e-01 -7.083202048090000424e-01 5.853888115035999623e-03 1.734200984342000096e+00 -9.357394386245999618e-01 7.286985128777999643e-01 -8.043714838855999805e-01 9.330096981942999357e-02 -3.054175106961000141e-01 7.769727781103999975e-01 -1.520489330945000050e+00 4.456002361718999771e-01 -5.946224149766999867e-01 -1.377037704666000062e+00 3.080176675174000067e-01 -4.529124541089999956e-01 5.330228923944999586e-01 -1.419618775743000105e+00 9.433889853215999821e-01 1.512697859343000051e+00 -1.546281868454999930e+00 -4.087738086204000254e-01 -1.104062118971999906e+00 -8.004960598010000261e-01 -1.338681984838999917e+00 -1.239094924431000111e+00 9.663329974268000111e-01 -1.121900948258999949e-02 1.019916333974000056e+00 2.279398822445999895e-01 -5.364463165095000319e-01 -3.518650069961000160e-01 -7.620248974343000192e-01 -2.239765264252999988e-01 4.786039472576000264e-01 2.456375579570999890e-01 2.059086118299000012e-01 9.069618501209000261e-01 3.574283604321999985e-01 -9.695383919773999937e-01 1.198922720085999982e+00 2.724752489805999933e-01 1.247579051277000056e-01 -6.941068883611000162e-01 9.970085744258999627e-01 -5.576797735535999889e-01 1.460421928851000084e+00 -6.656609721899999776e-01 1.736499807850000021e+00 3.937223124791999762e-01 -3.677279433555999955e-01 3.995618024154999892e-01 6.633138119386999820e-02 3.672471470284999762e-01 3.655954702343000018e-01 -5.969693181177000429e-01 9.805288303718999454e-02 1.825111085152999912e+00 -8.376942688973999518e-01 -1.328021933225999929e+00 2.151576419231000098e-02 6.260520965893999756e-01 -2.153705292807999994e-01 1.974666510793000040e-01 -7.493892100040000503e-01 -2.607844420327000146e-01 -6.753774288728999764e-01 -2.586897641306999951e-01 4.414769577241000054e-01 -1.387578199972999971e-01 2.552503991748000245e-01 -2.781779562184999999e-01 3.266789927668000137e-01 -3.788140267947999740e-01 3.262835570709999855e-01 1.863492001792000086e-01 -3.431330257872999834e-01 3.846308910215999743e-01 9.823311738227000212e-02 -3.237286516687999938e-01 1.241400947028999946e+00 -4.717555563654999840e-01 4.223988566210999662e-02 7.400792447612999925e-02 -3.207292024967000055e-01 9.486291510661999660e-02 -2.974254930324000123e-01 5.342071425990000400e-01 2.025924027246999992e-01 -3.151874463288000250e-01 4.423717016909999855e-01 -3.424066890899000321e-02 9.988273729381000332e-02 2.010937065799999965e-02 -6.010545442358999901e-01 -3.641335408676000251e-01 -9.747824143771000732e-03 -2.385264003022000145e-02 -4.537179807896000172e-01 1.077501592890000026e+00 -7.786455379521000086e-01 1.992695087507999896e-01 5.828552462592000438e-01 -1.073377028891000062e+00 -1.048141649476999948e+00 -2.954262030647999970e-01 -6.095314719920999665e-03 -2.827005270170999951e-02 7.410328669950999592e-01 2.328586600700000009e-01 -4.571524606491000203e-02 -4.933517960927000234e-01 -2.552277734653000119e-01 1.019342206595000022e-01 -1.126914599798000023e-03 2.967150971759000000e-01 3.845028500746000000e-01 3.400065641094999758e-01 3.164696555711000170e-01 -7.622935777347999986e-02 3.283427537467999840e-02 8.218866112599999552e-01 4.963211633556000035e-01 -4.990717297231000299e-02 3.022074881594000086e-03 -1.620802985161000076e-01 1.755307685990999955e-01 -8.572685929476000499e-01 2.291220755664999942e-01 -5.667421415433999687e-01 -8.141267642291000195e-01 -2.787870506028999884e-01 -7.555493165283999613e-01 2.196966677831999892e-01 -6.248552479783999747e-01 -5.292107174524000035e-01 9.963449726504000070e-01 -2.346743732582000086e-01 -2.352431013198999846e-02 8.834727641048000235e-01 -1.121723542128000017e-01 -7.109869532071999565e-01 1.188050295335000006e-01 -1.755708778113999891e-01 -3.201360489530999942e-01 -1.616928332406999957e-01 -2.816839127512000274e-01 2.800795442587000195e-01 -5.663474771786000117e-01 -4.219250022730999805e-01 -6.627517687456000450e-01 -1.924038914661000133e-01 -1.216442989666999958e-01 -4.653825624834000141e-02 2.043266119366000111e-01 2.223724150431000135e-01 -1.452316011309000010e-01 1.953634885363000062e-01 3.690690308648000156e-02 5.399471308354999999e-02 -6.833437355029999827e-01 3.471503747770000037e-01 -8.883851141719000255e-01 -1.951333747860999890e-01 -1.547351447450000084e+00 1.112596125223000110e+00 -1.041692808046000007e-01 -6.717974245636000319e-01 -5.364992812385999815e-02 3.691101685183999920e-02 -1.122132347560999971e-01 1.046050828230000035e-01 -6.391762936568999923e-04 5.157504771766000529e-01 3.279313772101999924e-01 4.814391029253999865e-01 -3.251826106151000095e-01 -6.202257192803000141e-01 -1.395273512309999908e-01 -3.512376577779000031e-01 -9.588981378597000171e-02 -2.764167504214000148e-01 -1.887889201512999993e-01 1.723770532257999991e-02 -4.621170041141999807e-01 1.465364360827000056e-01 -6.358544281243000418e-02 7.805278427171000177e-02 3.541823424485000121e-02 -1.040011306453000051e-01 7.868514714148000522e-01 -2.187415028873999912e-01 -7.973582852685000277e-02 4.812652963387000216e-01 1.385914696104000032e-01 3.336739365501000254e-01 8.139161908644999832e-02 -1.323295473931000027e-02 -2.814887660066999753e-01 3.417952807124999826e-01 -4.113302566847000241e-01 7.862356921617000283e-02 6.967777505246000036e-01 2.466377171615999897e-01 6.243191729292000280e-01 9.991395048851999805e-01 5.457012601404000185e-02 -6.797205366573999541e-01 -5.677551562646000471e-01 1.743115513889000046e-01 7.607290613442000415e-01 4.359223460393999994e-01 3.081760474840000152e-01 5.637169813377999883e-02 -9.766135541853000479e-01 -9.053837068825999479e-01 -1.873632433417999898e-01 9.952149727266000612e-02 -1.388907460407000083e-01 3.158266226224000217e-01 2.225732182150000071e-01 -6.064492332919999562e-01 8.323165491234999491e-01 3.990720072266999985e-01 -1.273572906180000075e+00 3.380188441070000049e-01 3.586897437373999797e-01 6.519559628750000169e-01 -7.424449169568000384e-01 5.193716191395000292e-01 2.311010538175999884e-01 3.944633044656999932e-01 8.421417634781999673e-02 -9.414660571235999864e-02 -5.196253870404999864e-01 1.730283137051999987e-01 4.952690678634000254e-01 1.627873519382999901e-01 2.941187970095999749e-01 -6.503680494439000315e-01 1.003938726404999919e-02 1.498631867117000138e-01 1.961214498048000077e-01 1.091104272292000021e-01 -7.903571708371999460e-02 -3.212267109956000177e-01 -1.032529395694999942e-02 4.069544958874999896e-01 -4.486549640661000038e-01 4.008812926565000212e-02 -4.206942150977999867e-02 2.692742253056000235e-01 -1.575782965443000005e-01 1.134969866604000066e-01 -1.836487703270999958e-02 -4.210749955043999737e-01 5.497661745422000035e-01 -6.604696574091000194e-01 1.592310017798000132e-01 5.408976677453000148e-01 -3.182691708081000076e-02 -7.469952556716999981e-01 3.615125581090999907e-01 -2.733751351543000085e-01 -8.131430600861000446e-01 -1.293729328029000092e+00 -3.465464225991999880e-01 -7.865318832680000538e-01 2.178709272919999995e-01 3.081482795677999986e-01 5.958151498224000253e-01 -1.418858243371000083e-01 5.217588886031999662e-01 -6.178181381001000144e-02 4.661232973594999773e-01 -1.522496848442999873e-01 3.171939353857999855e-01 -2.773392623045999872e-01 -3.087972260542000136e-01 3.549747565019999995e-01 -2.669448056673999828e-02 -2.264429858721999922e-01 2.755721429697999825e-01 7.631826652744000405e-01 -3.140499902052000247e-01 4.799995421577999966e-01 9.287596643511000089e-03 8.580759194006000179e-01 -6.572755757132000554e-01 -4.719913265430000227e-01 1.271276396665000030e+00 3.670185759403999937e-01 3.823801471459999934e-01 1.021775241697999936e+00 6.078515130610000483e-01 -3.854387316951999876e-01 8.146206731833000037e-02 -5.472156400156000244e-02 1.240300257683000108e-03 9.270493664004000323e-01 4.238772410493000242e-01 -6.696438683947999460e-01 5.031515565241999610e-01 1.019735842518000091e+00 -1.519920602883000071e-01 7.926143424711999952e-01 1.620237342422999882e-01 -4.207122128212999884e-02 9.634309930718000514e-02 -3.588231840014000085e-03 -3.028399795844000097e-01 -1.268722005482999959e+00 6.260538963617999775e-01 1.388802559389999969e+00 5.010573928428999624e-01 -9.351228880404000021e-01 -1.322053116790999905e+00 1.296563969476000056e+00 2.240850269867999955e-01 1.574402282942000131e-01 -7.170388162804000043e-01 -2.614459869254999735e-01 -2.585054160201999962e-01 -9.067726169141000492e-01 -3.074476539039999734e-01 -5.962810337499999669e-01 -7.057958955366999687e-01 -4.982597752840000060e-01 2.850541150268000035e-01 1.559987906211999897e+00 3.408845959047000079e-02 -9.592889455693999479e-02 3.399140043887999840e-01 -1.243254455436000050e-01 4.451634057121999777e-01 -1.058854151598999982e+00 5.655424647186999693e-02 7.566227521784999466e-01 -2.950981302769000170e-01 -5.499106705505999448e-01 8.305645992983999859e-01 -4.384332855743000024e-01 9.077347237888999665e-01 -5.814087435125000480e-01 -6.094720795046000283e-01 1.719695333443000129e-01 -9.102909147429000258e-01 7.060249808455000206e-03 1.092467985510999995e+00
7.178057764108000116e-01 -1.139331229223000008e+00 1.088180927778999996e-01 1.143607231210000075e+00 -1.779346731014000094e+00 -1.558980805027999905e-01 -1.797136966446999939e-01 1.514608960464999932e+00 -2.979386852618000070e-01 4.742893787201999944e-01 1.033323609520000019e+00 -4.294063988108000052e-01 2.611924761348999868e-01 -1.915528562561999992e-01 -2.890501238586999921e-01 1.555266074903000062e+00 -7.895863540517999990e-01 4.454392851019999822e-01 -4.540319125091000219e-01 1.483063836311999950e-01 1.199897939587999951e-01 -7.732343938344999890e-01 -1.942321259277000056e+00 1.278402209608000106e+00 -1.509597622919000015e-01 1.662968051715000062e+00 -1.341959627393999988e+00 -3.147225908424999830e-01 2.908404345456999884e+00 -1.351937051067999995e+00 -5.761377245276999570e-01 -1.144963745338999951e-02 1.003393909604000100e+00 8.492668050910999744e-01 6.763559908091999473e-01 -1.423174354569999966e+00 5.056869215410000340e-01 2.516158874744000087e-02 -1.058484426936999956e+00 -8.923456417773999449e-01 8.773381115035999711e-01 6.559679125476000072e-01 -2.979649105159999922e-01 -1.151292516243000108e+00 9.533085591694000216e-02 -1.393839607969999950e+00 -9.325648973140999720e-01 -1.928481781256000116e-01 -7.814356993112000493e-01 1.181339458472999926e+00 -5.233858828052000423e-01 1.199839832651999894e+00 -6.322713384910000345e-01 1.301897209162000024e+00 7.149132851381999332e-02 1.637911363985000035e+00 1.484912202512999935e+00 1.012299183179000028e+00 2.133658399961000096e-01 1.797188388513999979e-01 6.655941235028000058e-01 -9.624411182807000031e-01 -6.780680885322000195e-01 1.292663348579000115e-01 6.340651973005999587e-01 2.174744631548999885e-01 6.527671459830000078e-01 -8.876371802064000338e-01 1.658587148710999992e+00 2.320439288394000155e+00 3.214832299770999935e+00 -6.439963411135000149e-01 -3.566434025783999928e-01 -2.705687758440999957e-01 -4.554974414205000266e-01 9.140673513484000035e-01 -1.800683032191999988e+00 2.355367727450000004e+00 -5.750617177743000408e-01 -5.794040542278999784e-01 -7.613638667622000256e-01 -1.421621408145000043e+00 6.233676075780999470e-01 -5.622244558411000348e-01 -4.047176359701000203e-01 -2.447728958992999804e+00 -6.169231370227999944e-01 -3.689813562404000158e-01 7.782423889463000455e-01 1.240835047180999934e-01 -2.979093746834999834e-01 -1.777779129300000038e-01 2.877519737756000229e-01 7.655753340551000319e-01 9.213438309488000133e-01 1.726927590065999940e+00 -5.968783010589999716e-01 -3.068971806759999976e-02 3.857634620488000210e-01 -1.930655906251999898e+00 -7.781971375273000202e-01 -1.185729360337999916e+00 7.886191049702999667e-01 -1.908704854261999984e+00 1.345317745483999960e+00 1.401136142176000021e+00 1.743639761862999960e+00 -6.986813954474999644e-01 9.319568313710000496e-01 -5.502364293454999888e-01 -3.488627296103000153e-02 5.805847048878000072e-01 1.264779732710999971e-01 1.469473241096000082e+00 -1.738185680318999893e+00 -5.318304146590999704e-01 1.507587020097000130e-01 -1.262463425700000030e+00 4.825248798715000009e-01 -4.226955619480999848e-01 3.575849406264000052e-01 -6.081291922232000546e-01 2.525491979917000168e-02 -2.741991737791000250e-01 -3.501662790105000145e-01 3.920333546863999929e-01 -1.016345071416000057e+00 -1.020218952837999987e-01 -6.064410057612999727e-02 -1.029219871458000091e+00 6.566873072658999666e-01 -2.115706956347999934e-01 -9.693846399969000549e-01 1.694723749233000065e+00 2.003195473602999988e-01 2.634522188721999947e-01 2.351711104260000018e-02 -2.692078908391000169e-01 -1.714319927662000032e+00 -7.458413444865999997e-01 -8.581008591030999666e-01 4.799555762905000078e-02 5.201691753998000101e-01 -1.362754197095999986e-01 -1.082565638055000001e-01 -1.346794587250000008e+00 -6.716614131961999856e-01 1.905460121830000020e+00 1.347526066154000057e+00 4.381604915085000052e-01 1.201321302403999924e+00 7.252426928605000267e-01 7.968427790462000448e-01 -1.410694990224000134e-01 -8.440230398018000457e-01 -4.353186509720000097e-01 7.706056977659999641e-01 -1.264574558664000037e+00 1.481698580431000112e-01 -1.529042877580999993e-01 -2.465223260430999819e+00 1.435321018143000060e+00 8.871697536167000298e-01 -8.831554899510000167e-01 -3.622064989041999805e-01 4.949695343227000222e-01 -9.539719038346000657e-02 3.347805394334000262e-01 1.770127525719999984e-01 -7.887510025723000195e-01 3.837731709428999771e-01 9.299709111409000251e-01 1.138773814015999974e+00 1.196292481354999993e+00 -2.633488605173999741e-01 3.717959430814000155e-01 1.250304935051999911e+00 1.599812754493999956e+00 -1.146326430116000050e-01 -4.020562868889999975e-02 1.208946166508999998e+00 -7.148811463462999560e-01 -1.011721713365999920e+00 1.020437753733999919e+00 2.728439452014999933e+00 -1.410130375927000079e+00 1.026701218613000011e+00 1.793700172594999920e+00 3.035213219730000245e-01 6.803113762079999738e-01 -4.111415376986000125e-01 -7.055791515239999701e-01 1.781490002770000025e+00 -2.577482260826000071e-01 9.278039852345999483e-01 -4.222047383179000080e-01 6.132230621869000364e-01 6.586192343257000203e-01 -3.820541312408000101e-01 4.149264589450999963e-01 -3.726477496223999930e-01 6.371019274714000424e-01 -1.808390942935999890e+00 -9.533337559822999685e-01 -9.918666248294000232e-01 1.286867310289000033e+00 -4.681889217935999992e-01 -6.938693184112000312e-01 1.097202929446000064e-01 6.832879425603000101e-01 6.996869539690000472e-01 2.534799374057000176e-01 -5.587007586952999830e-03 1.375614598959000068e+00 -4.867124359031999720e-02 -1.714815893499000099e+00 -9.602585086439999751e-01 7.555588296108000090e-01 -1.537613907719999951e+00 -2.530775597307999836e-01 1.295897025266000036e+00 -2.370660135975000138e-01 5.192764883154999955e-01 -9.659018233944000054e-02 2.919161327666999761e-01 -3.306236823757000121e+00 -6.094602524291999890e-01 -1.348254459734999910e+00 -1.071260496610000057e-01 -6.743286758150000004e-01 9.036849788969999464e-01 -1.601052283420999922e+00 -7.468918973168999775e-01 2.163391667582000188e+00 -1.563091999290000089e+00 -6.812585706834000110e-01 -1.997515906294999866e-01 6.144556491346000460e-01 -3.972951176990999755e-01 3.079168802660000037e-01 2.807205203247000180e-01 -1.837708977364000129e-01 1.944561461627999921e-01 -8.677674363809000369e-01 1.320333562867999910e-01 -5.602040828259999827e-01 -3.095562157640999734e-01 -3.390796813506000151e-02 2.704880431987999878e-01 -9.026346831771000501e-01 1.216126743954999978e-01 7.165431075539000494e-01 7.133860497463000161e-02 -2.774469915350999960e-01 -2.515217850916999787e-01 6.882740832934999831e-02 -8.043362597696999960e-02 -1.823017692803000078e-01 -5.100896789233999584e-01 2.370696131421999864e-01 2.269998868586000085e-01 7.829446798693000253e-02 1.354804859748000023e+00 -1.011714257166000053e+00 5.189625565959999909e-01 -3.767604865465000175e-01 -3.022897634666999941e-02 2.210033025073999957e-01 -1.337064760829999921e+00 8.713348422836999507e-01 4.474686569788000057e-01 -1.756593237667999907e-01 4.041352810605000068e-01 4.529924154232999739e-02 -6.293096845382000204e-01 8.041722233757000460e-01 -5.033875838121000257e-01 4.465448595439999724e-01 5.767506755672000551e-01 7.690224123209999929e-01 -3.367844573870000247e-01 -6.980087948101999507e-01 1.088119221298999989e-01 2.083488460226000094e-01 4.916772364786999722e-02 -8.118413104582999917e-02 1.131966817888000049e-01 5.103020520604000243e-01 -6.333211199902000210e-01 -8.422878021485999955e-01 -3.661549423239999768e-01 3.146050914192000114e-01 -3.692749762433999994e-01 -9.119431057578000210e-01 2.543409999187000170e-01 -4.228896802513000264e-01 -4.559743810926000229e-01 -1.430464203908000109e-01 1.999539364634000116e-01 1.695447257716999889e-01 -2.262406400382999949e-01 -7.565754438768000634e-02 -5.784470895597999540e-01 -9.349544807708000116e-01 -1.136324838071999910e+00 2.116794533066000128e-01 1.204279099702000068e-02 -8.109645642146999511e-02 3.251368449754000189e-01 -5.641350427429999703e-01 1.439550483159000027e-01 -5.291505536338999560e-01 -2.124384430166000037e-01 -2.268024261209999892e-01 1.048314941843000003e+00 -8.144226982251000224e-03 -5.201766315995000056e-01 5.098338541396999490e-01 1.241532844631000110e+00 4.841068797649000222e-01 -7.377035452628000201e-02 1.847648862927999958e-01 -3.527669500524999724e-01 -2.561004059434000002e-01 8.571690912478000524e-01 3.834324997485999975e-01 5.589735527610999455e-01 -4.810783771248999807e-01 3.642883212893999745e-01 -1.390840930129000064e-01 -5.903525836377000457e-01 8.781724345418000510e-01 -1.711917745799000079e-01 4.484055670407999933e-02 -8.284364970527999805e-01 -3.711333697472000148e-01 -3.251476436094999922e-01 -4.563834436361000058e-01 -1.828368158880999961e-01 8.803277904829999445e-02 1.392180474976000004e-01 8.883084952919000077e-02 5.068310625333000141e-01 9.206959129038000400e-01 -3.753975446587999865e-01 4.784131713888000181e-01 -1.098762046520000091e+00 9.195764545036999582e-01 -2.508674392883000204e-01 -6.133295058658000398e-01 -3.375321342422000215e-01 4.093903592045999851e-01 -7.119919975080000185e-01 -1.247566452869999898e+00 -7.603292547727999451e-02 5.555156758610999557e-01 5.834358013963999445e-01 -1.214270407333000040e-01 2.510193914963999851e-02 5.318340142038000540e-01 9.207146819582999464e-02 4.197184813752000143e-01 2.424807572597999922e-02 1.136258246494999957e+00 -7.336795114044000199e-01 5.615343717009999569e-01 -7.158612509445999583e-01 1.665581321163999984e-01 3.885299692570000074e-01 -1.791539674446999963e-01 1.738580087573999905e-03 -2.617362644940999794e-01 -7.993251793338999878e-02 -3.360252105668000144e-01 4.838816511111000002e-03 2.433341064627999872e-01 4.915849338682999892e-01 -2.964045078907999731e-01 -5.042926121924999894e-01 -2.290387718177999965e-01 -3.610384466507000067e-01 4.438040633691999748e-01 2.244835480066000033e-01 8.136734787078999664e-01 3.358503755387000078e-01 2.756343636710000267e-01 1.208734821813999966e-01 1.130732688277999998e-01 -4.722538361952999808e-01 -4.697971469412000056e-01 4.638131609964000202e-01 5.550716463118999799e-01 3.447661906373000185e-01 -8.723931084239999745e-01 -9.173714762678000234e-01 -6.974889177121000594e-02 -3.051796836360000098e-01 5.241762399760999669e-01 6.929766313268999334e-02 4.962152338974000210e-01 4.678611061160000140e-01 -9.328155798910999774e-01 3.508553347091999952e-01 -6.250856188389000145e-01 2.331507374109000053e-01 -2.479816328844000051e-01 -1.679732674021000016e-01 4.335607876093000024e-01 -5.543039148506000435e-01 1.877460806310999875e-01 -5.188908228124999855e-01 -6.114286891565999804e-01 1.598300688612000128e-02 -3.375943549434000102e-01 2.680750627015999754e-01 -3.587717619344000242e-01 -1.766965068595000021e-01 -1.336917179498000041e-01 -3.322302620170999865e-02 -1.541237620786000129e-01 -7.001723782820999942e-01 -6.656386035907999599e-01 5.144597832931999820e-02 -6.466067823482000293e-03 -1.087633282764999959e-01 1.554170270654000041e-01 -7.655933317784999748e-01 2.876774117782999740e-01 -9.718001915974000537e-01 -4.280226309860000189e-01 -1.662017771916000086e-01 -2.990254906491999765e-01 -1.094871967146000102e+00 -9.419545667607999440e-02 1.433770128599999971e+00 -6.166979083690999897e-01 4.804003771706000236e-02 -5.215277464116999800e-02 4.172605065693000270e-01 -2.674883369164000047e-01 -9.982612159796999673e-01 -9.222881972105000103e-02 -1.378605049269999994e-01 -1.096308185478999941e-01 -9.759882618498000317e-02 -2.913430338292999910e-01 -1.776010210192000005e-01 1.598868902453000063e-01 -1.118926181678999987e-01 9.892834372902999801e-03 5.793914558214999788e-01 -8.545121130424000455e-01 -3.185813027552000243e-01 -8.509840450208999707e-01 7.853879993861000441e-01 -6.800002727022999571e-02 6.499826410512999919e-01 -9.109280341539000014e-01 8.988021965185000184e-01 -6.858572461412999755e-02 -2.391043843361000121e-01 1.976088330948000127e-01 -9.269701764170999725e-02 -4.243361829978999911e-01 -2.532171706429000024e-01 1.242076890101000003e-01 3.612343647262999946e-01 3.713904800824999741e-01 -5.464016286938999656e-01 1.038961524954000071e+00 3.184509478152000028e-01 -9.485365913455000297e-02 9.029136478910000374e-01 3.819664566163999964e-01 2.927972498859000017e-01 -6.538194985855000363e-01 -4.374038157915999953e-02 -4.604241896662999989e-01 2.564107381181999767e-01 -2.586761372829000094e-01 1.066573889417999910e+00 4.571069521198000141e-01 7.204689252642000330e-01 -7.304751452950000168e-01 4.967605649187000205e-01 -3.116074420194999903e-02 -7.621015163143000093e-01 -5.252573889361999981e-01 8.373152882630999772e-01 2.161538159173999940e+00 -5.316620073894999798e-01 2.164185110076000118e-01 -3.178804199811000042e-01 -6.661250563452999485e-01 8.926289773669999761e-01 1.669880205970999953e-02 -6.651035569830000549e-01 -1.915883374824000063e-01 -1.314623656541000107e+00 -4.798745865347999739e-01 -7.817324046382000402e-01 9.280361558673999589e-01 1.397781366520999935e+00 -9.323540668391000485e-02 -1.116566937241999957e+00 1.090705237050999976e+00 -1.295180458761999942e+00 -1.371694951897000081e+00 1.935917155043999971e+00 -1.544627363447000024e+00 7.860405454172000317e-01 -2.339750331459999888e-01 -3.910259963925000193e-01 -1.493792536384999980e+00 6.763274515618999949e-01 -6.409123026410999957e-01 8.713638957516000039e-01 1.042999185660000050e+00 -9.070760071097999644e-01 -1.255840006351000016e+00 -3.755500110876999753e-01 1.641135270478999986e-01 5.618117937529000239e-01 3.488035942332000094e-01 3.034570443892000147e-01 2.241207139014000038e+00 1.695898229245000000e+00 -8.855371029873000399e-01
