-5.888765939116164638e+00 -4.114373189100533068e+00 -1.206587070010949247e+01 -4.114373189100533068e+00 -7.541169187569543020e+00 2.883388218776955725e+00 -1.206587070010949247e+01 2.883388218776955725e+00 -1.137829350947796847e+01
-1.783343421005069729e+01 -6.942023048705260990e+00 -3.070510194620662769e+00 -6.942023048705260990e+00 -8.788779180252161538e+00 -1.134753767576937911e+00 -3.070510194620662769e+00 -1.134753767576937911e+00 -1.179253915324993862e+01
