 vasp.5.4.4.18Apr17-6-g9f103f2a35 (build Jul 12 2018 13:43:46) complex           
 executed on             LinuxGNU date 2019.06.24  13:57:20
 running on    1 total cores
 distrk:  each k-point on    1 cores,    1 groups
 distr:  one band on NCORES_PER_BAND=   1 cores,    1 groups


--------------------------------------------------------------------------------------------------------


 INCAR:
 POTCAR:    PAW_PBE H 15Jun2001                   
 POTCAR:    PAW_PBE C 08Apr2002                   
 POTCAR:    PAW_PBE H 15Jun2001                   
   VRHFIN =H: ultrasoft test                                                    
   LEXCH  = PE                                                                  
   EATOM  =    12.4884 eV,    0.9179 Ry                                         
                                                                                
   TITEL  = PAW_PBE H 15Jun2001                                                 
   LULTRA =        F    use ultrasoft PP ?                                      
   IUNSCR =        0    unscreen: 0-lin 1-nonlin 2-no                           
   RPACOR =    0.000    partial core radius                                     
   POMASS =    1.000; ZVAL   =    1.000    mass and valenz                      
   RCORE  =    1.100    outmost cutoff radius                                   
   RWIGS  =    0.700; RWIGS  =    0.370    wigner-seitz radius (au A)           
   ENMAX  =  250.000; ENMIN  =  200.000 eV                                      
   RCLOC  =    0.701    cutoff for local pot                                    
   LCOR   =        T    correct aug charges                                     
   LPAW   =        T    paw PP                                                  
   EAUG   =  400.000                                                            
   RMAX   =    1.123    core radius for proj-oper                               
   RAUG   =    1.200    factor for augmentation sphere                          
   RDEP   =    1.112    radius for radial grids                                 
   RDEPT  =    0.926    core radius for aug-charge                              
                                                                                
   Atomic configuration                                                         
    2 entries                                                                   
     n  l   j            E        occ.                                          
     1  0  0.50        -6.4927   1.0000                                         
     2  1  0.50        -3.4015   0.0000                                         
   Description                                                                  
     l       E           TYP  RCUT    TYP  RCUT                                 
     0     -6.4927494     23  1.100                                             
     0      6.8029130     23  1.100                                             
     1     -4.0817478     23  1.100                                             
  local pseudopotential read in
  atomic valenz-charges read in
  non local Contribution for L=           0  read in
    real space projection operators read in
  non local Contribution for L=           0  read in
    real space projection operators read in
  non local Contribution for L=           1  read in
    real space projection operators read in
    PAW grid and wavefunctions read in

   number of l-projection  operators is LMAX  =           3
   number of lm-projection operators is LMMAX =           5

 POTCAR:    PAW_PBE C 08Apr2002                   
   VRHFIN =C: s2p2                                                              
   LEXCH  = PE                                                                  
   EATOM  =   147.1560 eV,   10.8157 Ry                                         
                                                                                
   TITEL  = PAW_PBE C 08Apr2002                                                 
   LULTRA =        F    use ultrasoft PP ?                                      
   IUNSCR =        1    unscreen: 0-lin 1-nonlin 2-no                           
   RPACOR =    1.200    partial core radius                                     
   POMASS =   12.011; ZVAL   =    4.000    mass and valenz                      
   RCORE  =    1.500    outmost cutoff radius                                   
   RWIGS  =    1.630; RWIGS  =    0.863    wigner-seitz radius (au A)           
   ENMAX  =  400.000; ENMIN  =  300.000 eV                                      
   ICORE  =        2    local potential                                         
   LCOR   =        T    correct aug charges                                     
   LPAW   =        T    paw PP                                                  
   EAUG   =  644.873                                                            
   DEXC   =    0.000                                                            
   RMAX   =    1.529    core radius for proj-oper                               
   RAUG   =    1.300    factor for augmentation sphere                          
   RDEP   =    1.501    radius for radial grids                                 
   RDEPT  =    1.300    core radius for aug-charge                              
                                                                                
   Atomic configuration                                                         
    4 entries                                                                   
     n  l   j            E        occ.                                          
     1  0  0.50      -273.3789   2.0000                                         
     2  0  0.50       -13.7508   2.0000                                         
     2  1  0.50        -5.2854   2.0000                                         
     3  2  1.50        -5.4423   0.0000                                         
   Description                                                                  
     l       E           TYP  RCUT    TYP  RCUT                                 
     0    -13.7508458     23  1.200                                             
     0     -8.2022199     23  1.200                                             
     1     -5.2854383     23  1.500                                             
     1     34.0145650     23  1.500                                             
     2     -5.4423304      7  1.500                                             
  local pseudopotential read in
  partial core-charges read in
  partial kinetic energy density read in
  atomic valenz-charges read in
  non local Contribution for L=           0  read in
    real space projection operators read in
  non local Contribution for L=           0  read in
    real space projection operators read in
  non local Contribution for L=           1  read in
    real space projection operators read in
  non local Contribution for L=           1  read in
    real space projection operators read in
    PAW grid and wavefunctions read in

   number of l-projection  operators is LMAX  =           4
   number of lm-projection operators is LMMAX =           8


 ----------------------------------------------------------------------------- 
|                                                                             |
|  ADVICE TO THIS USER RUNNING 'VASP/VAMP'   (HEAR YOUR MASTER'S VOICE ...):  |
|                                                                             |
|      You have a (more or less) 'small supercell' and for smaller cells      |
|      it is recommended  to use the reciprocal-space projection scheme!      |
|      The real space optimization is not  efficient for small cells and it   |
|      is also less accurate ...                                              |
|      Therefore set LREAL=.FALSE. in the  INCAR file                         |
|                                                                             |
 ----------------------------------------------------------------------------- 

 Optimization of the real space projectors (new method)

 maximal supplied QI-value         = 34.20
 optimisation between [QCUT,QGAM] = [  9.92, 20.18] = [ 27.55,114.04] Ry 
 Optimized for a Real-space Cutoff    1.34 Angstroem

   l    n(q)    QCUT    max X(q) W(low)/X(q) W(high)/X(q)  e(spline) 
   0      8     9.919    19.460    0.16E-03    0.20E-03    0.36E-06
   0      8     9.919    12.209    0.16E-03    0.20E-03    0.35E-06
   1      8     9.919     4.655    0.19E-03    0.46E-03    0.40E-06
 Optimization of the real space projectors (new method)

 maximal supplied QI-value         = 25.13
 optimisation between [QCUT,QGAM] = [ 10.05, 20.36] = [ 28.30,116.06] Ry 
 Optimized for a Real-space Cutoff    1.51 Angstroem

   l    n(q)    QCUT    max X(q) W(low)/X(q) W(high)/X(q)  e(spline) 
   0      9    10.053   115.676    0.19E-03    0.21E-03    0.38E-06
   0      9    10.053    87.132    0.19E-03    0.21E-03    0.38E-06
   1      9    10.053     4.429    0.87E-04    0.11E-03    0.39E-06
   1      9    10.053     2.733    0.59E-04    0.62E-04    0.43E-06
  PAW_PBE H 15Jun2001                   :
 energy of atom  1       EATOM=  -12.4884
 kinetic energy error for atom=    0.0098 (will be added to EATOM!!)
  PAW_PBE C 08Apr2002                   :
 energy of atom  2       EATOM= -147.1560
 kinetic energy error for atom=    0.0288 (will be added to EATOM!!)


 POSCAR: POSCAR file written by OVITO            
  positions in cartesian coordinates
  No initial velocities read in
 exchange correlation table for  LEXCH =        8
   RHO(1)=    0.500       N(1)  =     2000
   RHO(2)=  100.500       N(2)  =     4000



--------------------------------------------------------------------------------------------------------


 ion  position               nearest neighbor table
   1  0.524  0.520  0.278-   5 1.11
   2  0.596  0.553  0.567-   5 1.10
   3  0.545  0.309  0.445-   5 1.04
   4  0.328  0.491  0.488-   5 1.15
   5  0.505  0.467  0.445-   3 1.04   2 1.10   1 1.11   4 1.15


IMPORTANT INFORMATION: All symmetrisations will be switched off!
NOSYMM: (Re-)initialisation of all symmetry stuff for point group C_1.




Automatic generation of k-mesh.
 generate k-points for:    1    1    1
Space group operators:
 irot       det(A)        alpha          n_x          n_y          n_z        tau_x        tau_y        tau_z
    1     1.000000     0.000001     1.000000     0.000000     0.000000     0.000000     0.000000     0.000000
 
 Subroutine IBZKPT returns following result:
 ===========================================
 
 Found      1 irreducible k-points:
 
 Following reciprocal coordinates:
            Coordinates               Weight
  0.000000  0.000000  0.000000      1.000000
 
 Following cartesian coordinates:
            Coordinates               Weight
  0.000000  0.000000  0.000000      1.000000
 


--------------------------------------------------------------------------------------------------------




 Dimension of arrays:
   k-points           NKPTS =      1   k-points in BZ     NKDIM =      1   number of bands    NBANDS=      8
   number of dos      NEDOS =    301   number of ions     NIONS =      5
   non local maximal  LDIM  =      4   non local SUM 2l+1 LMDIM =      8
   total plane-waves  NPLWV =  74088
   max r-space proj   IRMAX =   4295   max aug-charges    IRDMAX=   3683
   dimension x,y,z NGX =    42 NGY =   42 NGZ =   42
   dimension x,y,z NGXF=    84 NGYF=   84 NGZF=   84
   support grid    NGXF=    84 NGYF=   84 NGZF=   84
   ions per type =               4   1
   NGX,Y,Z   is equivalent  to a cutoff of  11.07, 10.90, 11.24 a.u.
   NGXF,Y,Z  is equivalent  to a cutoff of  22.13, 21.81, 22.47 a.u.

 SYSTEM =  unknown system                          
 POSCAR =  POSCAR file written by OVITO            

 Startparameter for this run:
   NWRITE =      2    write-flag & timer
   PREC   = a         normal or accurate (medium, high low for compatibility)
   ISTART =      0    job   : 0-new  1-cont  2-samecut
   ICHARG =      2    charge: 1-file 2-atom 10-const
   ISPIN  =      1    spin polarized calculation?
   LNONCOLLINEAR =      F non collinear calculations
   LSORBIT =      F    spin-orbit coupling
   INIWAV =      1    electr: 0-lowe 1-rand  2-diag
   LASPH  =      F    aspherical Exc in radial PAW
   METAGGA=      F    non-selfconsistent MetaGGA calc.

 Electronic Relaxation 1
   ENCUT  =  400.0 eV  29.40 Ry    5.42 a.u.  10.29 10.44 10.13*2*pi/ulx,y,z
   ENINI  =  400.0     initial cutoff
   ENAUG  =  644.9 eV  augmentation charge cutoff
   NELM   =    120;   NELMIN=  4; NELMDL= -5     # of ELM steps 
   EDIFF  = 0.1E-05   stopping-criterion for ELM
   LREAL  =      T    real-space projection
   NLSPLINE    = F    spline interpolate recip. space projectors
   LCOMPAT=      F    compatible to vasp.4.4
   GGA_COMPAT  = T    GGA compatible to vasp.4.4-vasp.4.6
   LMAXPAW     = -100 max onsite density
   LMAXMIX     =    2 max onsite mixed and CHGCAR
   VOSKOWN=      0    Vosko Wilk Nusair interpolation
   ROPT   =   -0.00025  -0.00025
 Ionic relaxation
   EDIFFG = 0.1E-04   stopping-criterion for IOM
   NSW    =      0    number of steps for IOM
   NBLOCK =      1;   KBLOCK =      1    inner block; outer block 
   IBRION =     -1    ionic relax: 0-MD 1-quasi-New 2-CG
   NFREE  =      0    steps in history (QN), initial steepest desc. (CG)
   ISIF   =      2    stress and relaxation
   IWAVPR =     10    prediction:  0-non 1-charg 2-wave 3-comb
   ISYM   =      0    0-nonsym 1-usesym 2-fastsym
   LCORR  =      T    Harris-Foulkes like correction to forces

   POTIM  = 0.5000    time-step for ionic-motion
   TEIN   =    0.0    initial temperature
   TEBEG  =    0.0;   TEEND  =   0.0 temperature during run
   SMASS  =  -3.00    Nose mass-parameter (am)
   estimated Nose-frequenzy (Omega)   =  0.10E-29 period in steps =****** mass=  -0.910E-27a.u.
   SCALEE = 1.0000    scale energy and forces
   NPACO  =    256;   APACO  = 16.0  distance and # of slots for P.C.
   PSTRESS=    0.0 pullay stress

  Mass of Ions in am
   POMASS =   1.00 12.01
  Ionic Valenz
   ZVAL   =   1.00  4.00
  Atomic Wigner-Seitz radii
   RWIGS  =  -1.00 -1.00
  virtual crystal weights 
   VCA    =   1.00  1.00
   NELECT =       8.0000    total number of electrons
   NUPDOWN=      -1.0000    fix difference up-down

 DOS related values:
   EMIN   =  10.00;   EMAX   =-10.00  energy-range for DOS
   EFERMI =   0.00
   ISMEAR =     0;   SIGMA  =   0.05  broadening in eV -4-tet -1-fermi 0-gaus

 Electronic relaxation 2 (details)
   IALGO  =     38    algorithm
   LDIAG  =      T    sub-space diagonalisation (order eigenvalues)
   LSUBROT=      F    optimize rotation matrix (better conditioning)
   TURBO    =      0    0=normal 1=particle mesh
   IRESTART =      0    0=no restart 2=restart with 2 vectors
   NREBOOT  =      0    no. of reboots
   NMIN     =      0    reboot dimension
   EREF     =   0.00    reference energy to select bands
   IMIX   =      4    mixing-type and parameters
     AMIX     =   0.40;   BMIX     =  1.00
     AMIX_MAG =   1.60;   BMIX_MAG =  1.00
     AMIN     =   0.10
     WC   =   100.;   INIMIX=   1;  MIXPRE=   1;  MAXMIX= -45

 Intra band minimization:
   WEIMIN = 0.0000     energy-eigenvalue tresh-hold
   EBREAK =  0.31E-07  absolut break condition
   DEPER  =   0.30     relativ break condition  

   TIME   =   0.40     timestep for ELM

  volume/ion in A,a.u.               =      50.19       338.69
  Fermi-wavevector in a.u.,A,eV,Ry     =   0.519095  0.980947  3.666217  0.269459
  Thomas-Fermi vector in A             =   1.536304

 Write flags
   LWAVE        =      F    write WAVECAR
   LDOWNSAMPLE  =      F    k-point downsampling of WAVECAR
   LCHARG       =      F    write CHGCAR
   LVTOT        =      F    write LOCPOT, total local potential
   LVHAR        =      F    write LOCPOT, Hartree potential only
   LELF         =      F    write electronic localiz. function (ELF)
   LORBIT       =      0    0 simple, 1 ext, 2 COOP (PROOUT), +10 PAW based schemes


 Dipole corrections
   LMONO  =      F    monopole corrections only (constant potential shift)
   LDIPOL =      F    correct potential (dipole corrections)
   IDIPOL =      0    1-x, 2-y, 3-z, 4-all directions 
   EPSILON=  1.0000000 bulk dielectric constant

 Exchange correlation treatment:
   GGA     =    --    GGA type
   LEXCH   =     8    internal setting for exchange type
   VOSKOWN=      0    Vosko Wilk Nusair interpolation
   LHFCALC =     F    Hartree Fock is set to
   LHFONE  =     F    Hartree Fock one center treatment
   AEXX    =    0.0000 exact exchange contribution

 Linear response parameters
   LEPSILON=     F    determine dielectric tensor
   LRPA    =     F    only Hartree local field effects (RPA)
   LNABLA  =     F    use nabla operator in PAW spheres
   LVEL    =     F    velocity operator in full k-point grid
   LINTERFAST=   F  fast interpolation
   KINTER  =     0    interpolate to denser k-point grid
   CSHIFT  =0.1000    complex shift for real part using Kramers Kronig
   OMEGAMAX=  -1.0    maximum frequency
   DEG_THRESHOLD= 0.2000000E-02 threshold for treating states as degnerate
   RTIME   =   -0.100 relaxation time in fs
  (WPLASMAI=    0.000 imaginary part of plasma frequency in eV, 0.658/RTIME)
   DFIELD  = 0.0000000 0.0000000 0.0000000 field for delta impulse in time

 Orbital magnetization related:
   ORBITALMAG=     F  switch on orbital magnetization
   LCHIMAG   =     F  perturbation theory with respect to B field
   DQ        =  0.001000  dq finite difference perturbation B field
   LLRAUG    =     F  two centre corrections for induced B field



--------------------------------------------------------------------------------------------------------


 Static calculation
 charge density and potential will be updated during run
 non-spin polarized calculation
 Variant of blocked Davidson
 Davidson routine will perform the subspace rotation
 perform sub-space diagonalisation
    after iterative eigenvector-optimisation
 modified Broyden-mixing scheme, WC =      100.0
 initial mixing is a Kerker type mixing with AMIX =  0.4000 and BMIX =      1.0000
 Hartree-type preconditioning will be used
 using additional bands            4
 real space projection scheme for non local part
 use partial core corrections
 calculate Harris-corrections to forces   (improved forces if not selfconsistent)
 use gradient corrections 
 use of overlap-Matrix (Vanderbilt PP)
 Gauss-broadening in eV      SIGMA  =   0.05


--------------------------------------------------------------------------------------------------------


  energy-cutoff  :      400.00
  volume of cell :      250.94
      direct lattice vectors                 reciprocal lattice vectors
     6.309796300  0.000000000  0.000000000     0.158483722 -0.001786561 -0.004133316
     0.072185400  6.403482900  0.000000000    -0.000000000  0.156165015  0.003707173
     0.160316300 -0.147435500  6.210734400     0.000000000  0.000000000  0.161011554

  length of vectors
     6.309796300  6.403889754  6.214552303     0.158547678  0.156209010  0.161011554



 k-points in units of 2pi/SCALE and weight: read from INCAR                         
   0.00000000  0.00000000  0.00000000       1.000

 k-points in reciprocal lattice and weights: read from INCAR                         
   0.00000000  0.00000000  0.00000000       1.000

 position of ions in fractional coordinates (direct lattice) 
   0.52416236  0.52017172  0.27799967
   0.59572295  0.55345989  0.56714259
   0.54486838  0.30879630  0.44540019
   0.32787271  0.49130854  0.48809081
   0.50503546  0.46677659  0.44536311

 position of ions in cartesian coordinates  (Angst):
   3.38947440  3.28992370  1.72658210
   3.88976440  3.46045400  3.52237200
   3.53170400  1.91170400  2.76626230
   2.18252420  3.07412390  3.03140240
   3.29176430  2.92333360  2.76603200



--------------------------------------------------------------------------------------------------------


 k-point  1 :   0.0000 0.0000 0.0000  plane waves:    4561

 maximum and minimum number of plane-waves per node :      4561     4561

 maximum number of plane-waves:      4561
 maximum index in each direction: 
   IXMAX=   10   IYMAX=   10   IZMAX=   10
   IXMIN=  -10   IYMIN=  -10   IZMIN=  -10


 serial   3D FFT for wavefunctions
 parallel 3D FFT for charge:
    minimum data exchange during FFTs selected (reduces bandwidth)


 total amount of memory used by VASP MPI-rank0    89165. kBytes
=======================================================================

   base      :      30000. kBytes
   nonlr-proj:       1160. kBytes
   fftplans  :      20656. kBytes
   grid      :      36747. kBytes
   one-center:         15. kBytes
   wavefun   :        587. kBytes

     INWAV:  cpu time    0.0000: real time    0.0000
 Broyden mixing: mesh for mixing (old mesh)
   NGX = 21   NGY = 21   NGZ = 21
  (NGX  = 84   NGY  = 84   NGZ  = 84)
  gives a total of   9261 points

 initial charge density was supplied:
 charge density of overlapping atoms calculated
 number of electron       8.0000000 magnetization 
 keeping initial charge density in first step


--------------------------------------------------------------------------------------------------------


 Maximum index for non-local projection operator         4125
 Maximum index for augmentation-charges         3387 (set IRDMAX)


--------------------------------------------------------------------------------------------------------


 First call to EWALD:  gamma=   0.281
 Maximum number of real-space cells 3x 3x 3
 Maximum number of reciprocal cells 3x 3x 3

    FEWALD:  cpu time    0.0007: real time    0.0007


--------------------------------------- Iteration      1(   1)  ---------------------------------------


    POTLOK:  cpu time    0.3729: real time    0.3741
    SETDIJ:  cpu time    0.0064: real time    0.0064
     EDDAV:  cpu time    0.1079: real time    0.1082
       DOS:  cpu time    0.0001: real time    0.0001
    --------------------------------------------
      LOOP:  cpu time    0.4873: real time    0.4887

 eigenvalue-minimisations  :    16
 total energy-change (2. order) : 0.2900924E+02  (-0.2369872E+03)
 number of electron       8.0000000 magnetization 
 augmentation part        8.0000000 magnetization 

 Free energy of the ion-electron system (eV)
  ---------------------------------------------------
  alpha Z        PSCENC =         0.96536301
  Ewald energy   TEWEN  =        55.34277811
  -Hartree energ DENC   =      -176.58738250
  -exchange      EXHF   =         0.00000000
  -V(xc)+E(xc)   XCENC  =        21.99768696
  PAW double counting   =       117.05815612     -117.66307307
  entropy T*S    EENTRO =        -0.00000000
  eigenvalues    EBANDS =       -69.14604656
  atomic energy  EATOM  =       197.04175453
  Solvation  Ediel_sol  =         0.00000000
  ---------------------------------------------------
  free energy    TOTEN  =        29.00923662 eV

  energy without entropy =       29.00923662  energy(sigma->0) =       29.00923662


--------------------------------------------------------------------------------------------------------




--------------------------------------- Iteration      1(   2)  ---------------------------------------


     EDDAV:  cpu time    0.1007: real time    0.1011
       DOS:  cpu time    0.0001: real time    0.0001
    --------------------------------------------
      LOOP:  cpu time    0.1008: real time    0.1012

 eigenvalue-minimisations  :    16
 total energy-change (2. order) :-0.4970142E+02  (-0.4970142E+02)
 number of electron       8.0000000 magnetization 
 augmentation part        8.0000000 magnetization 

 Free energy of the ion-electron system (eV)
  ---------------------------------------------------
  alpha Z        PSCENC =         0.96536301
  Ewald energy   TEWEN  =        55.34277811
  -Hartree energ DENC   =      -176.58738250
  -exchange      EXHF   =         0.00000000
  -V(xc)+E(xc)   XCENC  =        21.99768696
  PAW double counting   =       117.05815612     -117.66307307
  entropy T*S    EENTRO =        -0.00000000
  eigenvalues    EBANDS =      -118.84746856
  atomic energy  EATOM  =       197.04175453
  Solvation  Ediel_sol  =         0.00000000
  ---------------------------------------------------
  free energy    TOTEN  =       -20.69218539 eV

  energy without entropy =      -20.69218539  energy(sigma->0) =      -20.69218539


--------------------------------------------------------------------------------------------------------




--------------------------------------- Iteration      1(   3)  ---------------------------------------


     EDDAV:  cpu time    0.1435: real time    0.1438
       DOS:  cpu time    0.0001: real time    0.0001
    --------------------------------------------
      LOOP:  cpu time    0.1436: real time    0.1439

 eigenvalue-minimisations  :    24
 total energy-change (2. order) :-0.6684886E+01  (-0.6684886E+01)
 number of electron       8.0000000 magnetization 
 augmentation part        8.0000000 magnetization 

 Free energy of the ion-electron system (eV)
  ---------------------------------------------------
  alpha Z        PSCENC =         0.96536301
  Ewald energy   TEWEN  =        55.34277811
  -Hartree energ DENC   =      -176.58738250
  -exchange      EXHF   =         0.00000000
  -V(xc)+E(xc)   XCENC  =        21.99768696
  PAW double counting   =       117.05815612     -117.66307307
  entropy T*S    EENTRO =        -0.00000000
  eigenvalues    EBANDS =      -125.53235480
  atomic energy  EATOM  =       197.04175453
  Solvation  Ediel_sol  =         0.00000000
  ---------------------------------------------------
  free energy    TOTEN  =       -27.37707163 eV

  energy without entropy =      -27.37707163  energy(sigma->0) =      -27.37707163


--------------------------------------------------------------------------------------------------------




--------------------------------------- Iteration      1(   4)  ---------------------------------------


     EDDAV:  cpu time    0.1964: real time    0.1968
       DOS:  cpu time    0.0001: real time    0.0001
    --------------------------------------------
      LOOP:  cpu time    0.1964: real time    0.1969

 eigenvalue-minimisations  :    32
 total energy-change (2. order) :-0.2571201E-01  (-0.2571201E-01)
 number of electron       8.0000000 magnetization 
 augmentation part        8.0000000 magnetization 

 Free energy of the ion-electron system (eV)
  ---------------------------------------------------
  alpha Z        PSCENC =         0.96536301
  Ewald energy   TEWEN  =        55.34277811
  -Hartree energ DENC   =      -176.58738250
  -exchange      EXHF   =         0.00000000
  -V(xc)+E(xc)   XCENC  =        21.99768696
  PAW double counting   =       117.05815612     -117.66307307
  entropy T*S    EENTRO =        -0.00000000
  eigenvalues    EBANDS =      -125.55806681
  atomic energy  EATOM  =       197.04175453
  Solvation  Ediel_sol  =         0.00000000
  ---------------------------------------------------
  free energy    TOTEN  =       -27.40278364 eV

  energy without entropy =      -27.40278364  energy(sigma->0) =      -27.40278364


--------------------------------------------------------------------------------------------------------




--------------------------------------- Iteration      1(   5)  ---------------------------------------


     EDDAV:  cpu time    0.1504: real time    0.1507
       DOS:  cpu time    0.0001: real time    0.0001
    CHARGE:  cpu time    0.0216: real time    0.0217
    MIXING:  cpu time    0.0086: real time    0.0086
    --------------------------------------------
      LOOP:  cpu time    0.1806: real time    0.1811

 eigenvalue-minimisations  :    24
 total energy-change (2. order) :-0.5097157E-05  (-0.5097157E-05)
 number of electron       7.9999999 magnetization 
 augmentation part        0.2252684 magnetization 

 Broyden mixing:
  rms(total) = 0.87366E+00    rms(broyden)= 0.87346E+00
  rms(prec ) = 0.16401E+01
  weight for this iteration     100.00

 Free energy of the ion-electron system (eV)
  ---------------------------------------------------
  alpha Z        PSCENC =         0.96536301
  Ewald energy   TEWEN  =        55.34277811
  -Hartree energ DENC   =      -176.58738250
  -exchange      EXHF   =         0.00000000
  -V(xc)+E(xc)   XCENC  =        21.99768696
  PAW double counting   =       117.05815612     -117.66307307
  entropy T*S    EENTRO =        -0.00000000
  eigenvalues    EBANDS =      -125.55807191
  atomic energy  EATOM  =       197.04175453
  Solvation  Ediel_sol  =         0.00000000
  ---------------------------------------------------
  free energy    TOTEN  =       -27.40278873 eV

  energy without entropy =      -27.40278873  energy(sigma->0) =      -27.40278873


--------------------------------------------------------------------------------------------------------




--------------------------------------- Iteration      1(   6)  ---------------------------------------


    POTLOK:  cpu time    0.4319: real time    0.4342
    SETDIJ:  cpu time    0.0064: real time    0.0064
     EDDAV:  cpu time    0.1092: real time    0.1095
       DOS:  cpu time    0.0001: real time    0.0001
    CHARGE:  cpu time    0.0240: real time    0.0241
    MIXING:  cpu time    0.0097: real time    0.0097
    --------------------------------------------
      LOOP:  cpu time    0.5814: real time    0.5840

 eigenvalue-minimisations  :    16
 total energy-change (2. order) : 0.2914894E+01  (-0.8887941E+00)
 number of electron       8.0000000 magnetization 
 augmentation part        0.1972512 magnetization 

 Broyden mixing:
  rms(total) = 0.43270E+00    rms(broyden)= 0.43262E+00
  rms(prec ) = 0.68839E+00
  weight for this iteration     100.00

 eigenvalues of (default mixing * dielectric matrix)
  average eigenvalue GAMMA=   1.2261
  1.2261

 Free energy of the ion-electron system (eV)
  ---------------------------------------------------
  alpha Z        PSCENC =         0.96536301
  Ewald energy   TEWEN  =        55.34277811
  -Hartree energ DENC   =      -196.20202116
  -exchange      EXHF   =         0.00000000
  -V(xc)+E(xc)   XCENC  =        23.20947110
  PAW double counting   =       238.42609501     -239.20619366
  entropy T*S    EENTRO =        -0.00000000
  eigenvalues    EBANDS =      -104.06514132
  atomic energy  EATOM  =       197.04175453
  Solvation  Ediel_sol  =         0.00000000
  ---------------------------------------------------
  free energy    TOTEN  =       -24.48789437 eV

  energy without entropy =      -24.48789437  energy(sigma->0) =      -24.48789437


--------------------------------------------------------------------------------------------------------




--------------------------------------- Iteration      1(   7)  ---------------------------------------


    POTLOK:  cpu time    0.4198: real time    0.4208
    SETDIJ:  cpu time    0.0062: real time    0.0062
     EDDAV:  cpu time    0.1834: real time    0.1838
       DOS:  cpu time    0.0001: real time    0.0001
    CHARGE:  cpu time    0.0180: real time    0.0181
    MIXING:  cpu time    0.0089: real time    0.0089
    --------------------------------------------
      LOOP:  cpu time    0.6363: real time    0.6379

 eigenvalue-minimisations  :    32
 total energy-change (2. order) : 0.4907922E+00  (-0.8610142E-01)
 number of electron       8.0000000 magnetization 
 augmentation part        0.1884922 magnetization 

 Broyden mixing:
  rms(total) = 0.23414E+00    rms(broyden)= 0.23409E+00
  rms(prec ) = 0.34292E+00
  weight for this iteration     100.00

 eigenvalues of (default mixing * dielectric matrix)
  average eigenvalue GAMMA=   1.8270
  1.2799  2.3740

 Free energy of the ion-electron system (eV)
  ---------------------------------------------------
  alpha Z        PSCENC =         0.96536301
  Ewald energy   TEWEN  =        55.34277811
  -Hartree energ DENC   =      -206.41685758
  -exchange      EXHF   =         0.00000000
  -V(xc)+E(xc)   XCENC  =        24.00635882
  PAW double counting   =       359.55600351     -360.36879128
  entropy T*S    EENTRO =        -0.00000000
  eigenvalues    EBANDS =       -94.12371131
  atomic energy  EATOM  =       197.04175453
  Solvation  Ediel_sol  =         0.00000000
  ---------------------------------------------------
  free energy    TOTEN  =       -23.99710218 eV

  energy without entropy =      -23.99710218  energy(sigma->0) =      -23.99710218


--------------------------------------------------------------------------------------------------------




--------------------------------------- Iteration      1(   8)  ---------------------------------------


    POTLOK:  cpu time    0.3882: real time    0.3892
    SETDIJ:  cpu time    0.0062: real time    0.0062
     EDDAV:  cpu time    0.1951: real time    0.1956
       DOS:  cpu time    0.0001: real time    0.0001
    CHARGE:  cpu time    0.0244: real time    0.0245
    MIXING:  cpu time    0.0098: real time    0.0098
    --------------------------------------------
      LOOP:  cpu time    0.6239: real time    0.6254

 eigenvalue-minimisations  :    32
 total energy-change (2. order) : 0.1562029E+00  (-0.2069078E-01)
 number of electron       8.0000000 magnetization 
 augmentation part        0.1860623 magnetization 

 Broyden mixing:
  rms(total) = 0.40156E-01    rms(broyden)= 0.40140E-01
  rms(prec ) = 0.71946E-01
  weight for this iteration     100.00

 eigenvalues of (default mixing * dielectric matrix)
  average eigenvalue GAMMA=   1.4209
  2.2449  1.2875  0.7304

 Free energy of the ion-electron system (eV)
  ---------------------------------------------------
  alpha Z        PSCENC =         0.96536301
  Ewald energy   TEWEN  =        55.34277811
  -Hartree energ DENC   =      -213.44086974
  -exchange      EXHF   =         0.00000000
  -V(xc)+E(xc)   XCENC  =        24.67688284
  PAW double counting   =       492.13012532     -492.92116401
  entropy T*S    EENTRO =        -0.00000000
  eigenvalues    EBANDS =       -87.63576935
  atomic energy  EATOM  =       197.04175453
  Solvation  Ediel_sol  =         0.00000000
  ---------------------------------------------------
  free energy    TOTEN  =       -23.84089927 eV

  energy without entropy =      -23.84089927  energy(sigma->0) =      -23.84089927


--------------------------------------------------------------------------------------------------------




--------------------------------------- Iteration      1(   9)  ---------------------------------------


    POTLOK:  cpu time    0.4374: real time    0.4385
    SETDIJ:  cpu time    0.0101: real time    0.0102
     EDDAV:  cpu time    0.1375: real time    0.1379
       DOS:  cpu time    0.0001: real time    0.0001
    CHARGE:  cpu time    0.0267: real time    0.0267
    MIXING:  cpu time    0.0105: real time    0.0106
    --------------------------------------------
      LOOP:  cpu time    0.6225: real time    0.6240

 eigenvalue-minimisations  :    16
 total energy-change (2. order) :-0.2425693E-02  (-0.1876810E-03)
 number of electron       8.0000000 magnetization 
 augmentation part        0.1857856 magnetization 

 Broyden mixing:
  rms(total) = 0.21323E-01    rms(broyden)= 0.21322E-01
  rms(prec ) = 0.50454E-01
  weight for this iteration     100.00

 eigenvalues of (default mixing * dielectric matrix)
  average eigenvalue GAMMA=   1.8572
  2.5995  2.5995  1.0865  1.1433

 Free energy of the ion-electron system (eV)
  ---------------------------------------------------
  alpha Z        PSCENC =         0.96536301
  Ewald energy   TEWEN  =        55.34277811
  -Hartree energ DENC   =      -213.71483205
  -exchange      EXHF   =         0.00000000
  -V(xc)+E(xc)   XCENC  =        24.67418968
  PAW double counting   =       479.15587159     -479.94759958
  entropy T*S    EENTRO =        -0.00000000
  eigenvalues    EBANDS =       -87.36085026
  atomic energy  EATOM  =       197.04175453
  Solvation  Ediel_sol  =         0.00000000
  ---------------------------------------------------
  free energy    TOTEN  =       -23.84332497 eV

  energy without entropy =      -23.84332497  energy(sigma->0) =      -23.84332497


--------------------------------------------------------------------------------------------------------




--------------------------------------- Iteration      1(  10)  ---------------------------------------


    POTLOK:  cpu time    0.3927: real time    0.3937
    SETDIJ:  cpu time    0.0064: real time    0.0064
     EDDAV:  cpu time    0.1935: real time    0.1939
       DOS:  cpu time    0.0001: real time    0.0001
    CHARGE:  cpu time    0.0201: real time    0.0202
    MIXING:  cpu time    0.0092: real time    0.0092
    --------------------------------------------
      LOOP:  cpu time    0.6219: real time    0.6234

 eigenvalue-minimisations  :    32
 total energy-change (2. order) :-0.4751143E-02  (-0.3000137E-03)
 number of electron       8.0000000 magnetization 
 augmentation part        0.1854859 magnetization 

 Broyden mixing:
  rms(total) = 0.64653E-02    rms(broyden)= 0.64646E-02
  rms(prec ) = 0.12154E-01
  weight for this iteration     100.00

 eigenvalues of (default mixing * dielectric matrix)
  average eigenvalue GAMMA=   1.7988
  3.1592  2.3586  1.1012  1.1012  1.2736

 Free energy of the ion-electron system (eV)
  ---------------------------------------------------
  alpha Z        PSCENC =         0.96536301
  Ewald energy   TEWEN  =        55.34277811
  -Hartree energ DENC   =      -215.02459167
  -exchange      EXHF   =         0.00000000
  -V(xc)+E(xc)   XCENC  =        24.74237449
  PAW double counting   =       464.35143282     -465.13866577
  entropy T*S    EENTRO =        -0.00000000
  eigenvalues    EBANDS =       -86.12852163
  atomic energy  EATOM  =       197.04175453
  Solvation  Ediel_sol  =         0.00000000
  ---------------------------------------------------
  free energy    TOTEN  =       -23.84807611 eV

  energy without entropy =      -23.84807611  energy(sigma->0) =      -23.84807611


--------------------------------------------------------------------------------------------------------




--------------------------------------- Iteration      1(  11)  ---------------------------------------


    POTLOK:  cpu time    0.3842: real time    0.3851
    SETDIJ:  cpu time    0.0068: real time    0.0068
     EDDAV:  cpu time    0.1167: real time    0.1170
       DOS:  cpu time    0.0001: real time    0.0001
    CHARGE:  cpu time    0.0203: real time    0.0203
    MIXING:  cpu time    0.0098: real time    0.0098
    --------------------------------------------
      LOOP:  cpu time    0.5378: real time    0.5390

 eigenvalue-minimisations  :    16
 total energy-change (2. order) :-0.2296373E-02  (-0.3196234E-04)
 number of electron       8.0000000 magnetization 
 augmentation part        0.1853579 magnetization 

 Broyden mixing:
  rms(total) = 0.27106E-02    rms(broyden)= 0.27103E-02
  rms(prec ) = 0.60629E-02
  weight for this iteration     100.00

 eigenvalues of (default mixing * dielectric matrix)
  average eigenvalue GAMMA=   2.0600
  4.0114  2.7960  2.2894  1.2080  1.0275  1.0275

 Free energy of the ion-electron system (eV)
  ---------------------------------------------------
  alpha Z        PSCENC =         0.96536301
  Ewald energy   TEWEN  =        55.34277811
  -Hartree energ DENC   =      -215.28890293
  -exchange      EXHF   =         0.00000000
  -V(xc)+E(xc)   XCENC  =        24.75662751
  PAW double counting   =       466.76527056     -467.55314674
  entropy T*S    EENTRO =        -0.00000000
  eigenvalues    EBANDS =       -85.88011654
  atomic energy  EATOM  =       197.04175453
  Solvation  Ediel_sol  =         0.00000000
  ---------------------------------------------------
  free energy    TOTEN  =       -23.85037248 eV

  energy without entropy =      -23.85037248  energy(sigma->0) =      -23.85037248


--------------------------------------------------------------------------------------------------------




--------------------------------------- Iteration      1(  12)  ---------------------------------------


    POTLOK:  cpu time    0.3948: real time    0.3958
    SETDIJ:  cpu time    0.0069: real time    0.0069
     EDDAV:  cpu time    0.1133: real time    0.1136
       DOS:  cpu time    0.0001: real time    0.0001
    CHARGE:  cpu time    0.0190: real time    0.0190
    MIXING:  cpu time    0.0105: real time    0.0105
    --------------------------------------------
      LOOP:  cpu time    0.5445: real time    0.5458

 eigenvalue-minimisations  :    16
 total energy-change (2. order) :-0.1762306E-02  (-0.1346983E-04)
 number of electron       8.0000000 magnetization 
 augmentation part        0.1853980 magnetization 

 Broyden mixing:
  rms(total) = 0.97510E-03    rms(broyden)= 0.97504E-03
  rms(prec ) = 0.17057E-02
  weight for this iteration     100.00

 eigenvalues of (default mixing * dielectric matrix)
  average eigenvalue GAMMA=   2.0310
  4.1244  2.5024  2.5024  1.8091  1.0441  1.0441  1.1905

 Free energy of the ion-electron system (eV)
  ---------------------------------------------------
  alpha Z        PSCENC =         0.96536301
  Ewald energy   TEWEN  =        55.34277811
  -Hartree energ DENC   =      -215.23272288
  -exchange      EXHF   =         0.00000000
  -V(xc)+E(xc)   XCENC  =        24.74818159
  PAW double counting   =       467.05519827     -467.84334585
  entropy T*S    EENTRO =        -0.00000000
  eigenvalues    EBANDS =       -85.92934157
  atomic energy  EATOM  =       197.04175453
  Solvation  Ediel_sol  =         0.00000000
  ---------------------------------------------------
  free energy    TOTEN  =       -23.85213479 eV

  energy without entropy =      -23.85213479  energy(sigma->0) =      -23.85213479


--------------------------------------------------------------------------------------------------------




--------------------------------------- Iteration      1(  13)  ---------------------------------------


    POTLOK:  cpu time    0.4474: real time    0.4485
    SETDIJ:  cpu time    0.0074: real time    0.0074
     EDDAV:  cpu time    0.2174: real time    0.2179
       DOS:  cpu time    0.0001: real time    0.0001
    CHARGE:  cpu time    0.0204: real time    0.0204
    MIXING:  cpu time    0.0115: real time    0.0115
    --------------------------------------------
      LOOP:  cpu time    0.7042: real time    0.7059

 eigenvalue-minimisations  :    32
 total energy-change (2. order) :-0.3175090E-03  (-0.3287627E-05)
 number of electron       8.0000000 magnetization 
 augmentation part        0.1854113 magnetization 

 Broyden mixing:
  rms(total) = 0.82504E-03    rms(broyden)= 0.82490E-03
  rms(prec ) = 0.12215E-02
  weight for this iteration     100.00

 eigenvalues of (default mixing * dielectric matrix)
  average eigenvalue GAMMA=   2.0610
  4.5434  2.9605  2.4381  2.2228  1.2489  0.9711  1.0516  1.0516

 Free energy of the ion-electron system (eV)
  ---------------------------------------------------
  alpha Z        PSCENC =         0.96536301
  Ewald energy   TEWEN  =        55.34277811
  -Hartree energ DENC   =      -215.24833220
  -exchange      EXHF   =         0.00000000
  -V(xc)+E(xc)   XCENC  =        24.74971709
  PAW double counting   =       467.24319043     -468.03095559
  entropy T*S    EENTRO =        -0.00000000
  eigenvalues    EBANDS =       -85.91596768
  atomic energy  EATOM  =       197.04175453
  Solvation  Ediel_sol  =         0.00000000
  ---------------------------------------------------
  free energy    TOTEN  =       -23.85245230 eV

  energy without entropy =      -23.85245230  energy(sigma->0) =      -23.85245230


--------------------------------------------------------------------------------------------------------




--------------------------------------- Iteration      1(  14)  ---------------------------------------


    POTLOK:  cpu time    0.3805: real time    0.3814
    SETDIJ:  cpu time    0.0063: real time    0.0064
     EDDAV:  cpu time    0.1108: real time    0.1111
       DOS:  cpu time    0.0001: real time    0.0001
    CHARGE:  cpu time    0.0197: real time    0.0197
    MIXING:  cpu time    0.0103: real time    0.0103
    --------------------------------------------
      LOOP:  cpu time    0.5277: real time    0.5290

 eigenvalue-minimisations  :    16
 total energy-change (2. order) :-0.5014492E-04  (-0.6616048E-06)
 number of electron       8.0000000 magnetization 
 augmentation part        0.1853993 magnetization 

 Broyden mixing:
  rms(total) = 0.14254E-03    rms(broyden)= 0.14243E-03
  rms(prec ) = 0.25996E-03
  weight for this iteration     100.00

 eigenvalues of (default mixing * dielectric matrix)
  average eigenvalue GAMMA=   2.0890
  4.6486  3.4517  2.3177  2.3177  1.7010  1.2756  0.9677  1.0606  1.0606

 Free energy of the ion-electron system (eV)
  ---------------------------------------------------
  alpha Z        PSCENC =         0.96536301
  Ewald energy   TEWEN  =        55.34277811
  -Hartree energ DENC   =      -215.24467186
  -exchange      EXHF   =         0.00000000
  -V(xc)+E(xc)   XCENC  =        24.74874454
  PAW double counting   =       467.02056962     -467.80850276
  entropy T*S    EENTRO =        -0.00000000
  eigenvalues    EBANDS =       -85.91853765
  atomic energy  EATOM  =       197.04175453
  Solvation  Ediel_sol  =         0.00000000
  ---------------------------------------------------
  free energy    TOTEN  =       -23.85250244 eV

  energy without entropy =      -23.85250244  energy(sigma->0) =      -23.85250244


--------------------------------------------------------------------------------------------------------




--------------------------------------- Iteration      1(  15)  ---------------------------------------


    POTLOK:  cpu time    0.3739: real time    0.3748
    SETDIJ:  cpu time    0.0063: real time    0.0063
     EDDAV:  cpu time    0.2083: real time    0.2088
       DOS:  cpu time    0.0009: real time    0.0009
    CHARGE:  cpu time    0.0259: real time    0.0259
    MIXING:  cpu time    0.0128: real time    0.0128
    --------------------------------------------
      LOOP:  cpu time    0.6281: real time    0.6296

 eigenvalue-minimisations  :    32
 total energy-change (2. order) :-0.1792607E-04  (-0.1113535E-06)
 number of electron       8.0000000 magnetization 
 augmentation part        0.1854020 magnetization 

 Broyden mixing:
  rms(total) = 0.46757E-04    rms(broyden)= 0.46740E-04
  rms(prec ) = 0.97169E-04
  weight for this iteration     100.00

 eigenvalues of (default mixing * dielectric matrix)
  average eigenvalue GAMMA=   2.0573
  4.7736  3.5616  2.6475  2.3485  1.9212  1.2495  1.0315  1.0315  0.9826  1.0256

 Free energy of the ion-electron system (eV)
  ---------------------------------------------------
  alpha Z        PSCENC =         0.96536301
  Ewald energy   TEWEN  =        55.34277811
  -Hartree energ DENC   =      -215.23929652
  -exchange      EXHF   =         0.00000000
  -V(xc)+E(xc)   XCENC  =        24.74839694
  PAW double counting   =       466.97379553     -467.76170864
  entropy T*S    EENTRO =        -0.00000000
  eigenvalues    EBANDS =       -85.92360333
  atomic energy  EATOM  =       197.04175453
  Solvation  Ediel_sol  =         0.00000000
  ---------------------------------------------------
  free energy    TOTEN  =       -23.85252037 eV

  energy without entropy =      -23.85252037  energy(sigma->0) =      -23.85252037


--------------------------------------------------------------------------------------------------------




--------------------------------------- Iteration      1(  16)  ---------------------------------------


    POTLOK:  cpu time    0.4294: real time    0.4304
    SETDIJ:  cpu time    0.0067: real time    0.0067
     EDDAV:  cpu time    0.1983: real time    0.1988
       DOS:  cpu time    0.0001: real time    0.0001
    CHARGE:  cpu time    0.0200: real time    0.0201
    MIXING:  cpu time    0.0108: real time    0.0108
    --------------------------------------------
      LOOP:  cpu time    0.6652: real time    0.6668

 eigenvalue-minimisations  :    32
 total energy-change (2. order) :-0.1870486E-05  (-0.1285417E-07)
 number of electron       8.0000000 magnetization 
 augmentation part        0.1854001 magnetization 

 Broyden mixing:
  rms(total) = 0.28258E-04    rms(broyden)= 0.28250E-04
  rms(prec ) = 0.38294E-04
  weight for this iteration     100.00

 eigenvalues of (default mixing * dielectric matrix)
  average eigenvalue GAMMA=   2.0229
  4.7943  3.5747  2.5273  2.5273  1.9765  1.3013  1.3013  0.9752  1.0513  1.0513
  1.1715

 Free energy of the ion-electron system (eV)
  ---------------------------------------------------
  alpha Z        PSCENC =         0.96536301
  Ewald energy   TEWEN  =        55.34277811
  -Hartree energ DENC   =      -215.24136075
  -exchange      EXHF   =         0.00000000
  -V(xc)+E(xc)   XCENC  =        24.74854406
  PAW double counting   =       466.96413626     -467.75205218
  entropy T*S    EENTRO =        -0.00000000
  eigenvalues    EBANDS =       -85.92168529
  atomic energy  EATOM  =       197.04175453
  Solvation  Ediel_sol  =         0.00000000
  ---------------------------------------------------
  free energy    TOTEN  =       -23.85252224 eV

  energy without entropy =      -23.85252224  energy(sigma->0) =      -23.85252224


--------------------------------------------------------------------------------------------------------




--------------------------------------- Iteration      1(  17)  ---------------------------------------


    POTLOK:  cpu time    0.3724: real time    0.3733
    SETDIJ:  cpu time    0.0067: real time    0.0068
     EDDAV:  cpu time    0.1105: real time    0.1108
       DOS:  cpu time    0.0001: real time    0.0001
    --------------------------------------------
      LOOP:  cpu time    0.4897: real time    0.4909

 eigenvalue-minimisations  :    16
 total energy-change (2. order) :-0.5305542E-06  (-0.2491916E-08)
 number of electron       8.0000000 magnetization 
 augmentation part        0.1854001 magnetization 

 Free energy of the ion-electron system (eV)
  ---------------------------------------------------
  alpha Z        PSCENC =         0.96536301
  Ewald energy   TEWEN  =        55.34277811
  -Hartree energ DENC   =      -215.24102680
  -exchange      EXHF   =         0.00000000
  -V(xc)+E(xc)   XCENC  =        24.74851643
  PAW double counting   =       466.97331310     -467.76123312
  entropy T*S    EENTRO =        -0.00000000
  eigenvalues    EBANDS =       -85.92198803
  atomic energy  EATOM  =       197.04175453
  Solvation  Ediel_sol  =         0.00000000
  ---------------------------------------------------
  free energy    TOTEN  =       -23.85252277 eV

  energy without entropy =      -23.85252277  energy(sigma->0) =      -23.85252277


--------------------------------------------------------------------------------------------------------




 average (electrostatic) potential at core
  the test charge radii are     0.5201  0.6991
  (the norm of the test charge is              1.0000)
       1 -40.9982       2 -41.0655       3 -41.5771       4 -40.6514       5 -57.5415



 E-fermi :  -8.1240     XC(G=0):  -2.2624     alpha+bet : -0.8395


 k-point     1 :       0.0000    0.0000    0.0000
  band No.  band energies     occupation 
      1     -16.4542      2.00000
      2      -9.1052      2.00000
      3      -9.0087      2.00000
      4      -8.3928      2.00000
      5      -0.8037      0.00000
      6       1.8722      0.00000
      7       2.0352      0.00000
      8       2.8931      0.00000


--------------------------------------------------------------------------------------------------------


 soft charge-density along one line, spin component           1
         0         1         2         3         4         5         6         7         8         9
 total charge-density along one line

 pseudopotential strength for first ion, spin component:           1
 -2.335  -4.021   0.001  -0.002   0.000
 -4.021  -6.841   0.002  -0.005   0.000
  0.001   0.002  -0.340  -0.002   0.000
 -0.002  -0.005  -0.002  -0.336  -0.000
  0.000   0.000   0.000  -0.000  -0.341
 total augmentation occupancy for first ion, spin component:           1
  3.511  -0.633  -0.137   0.394  -0.034
 -0.633   0.128   0.026  -0.073   0.007
 -0.137   0.026   0.013  -0.013   0.001
  0.394  -0.073  -0.013   0.045  -0.003
 -0.034   0.007   0.001  -0.003   0.009


------------------------ aborting loop because EDIFF is reached ----------------------------------------


    CHARGE:  cpu time    0.0185: real time    0.0186
    FORLOC:  cpu time    0.0265: real time    0.0266
    FORNL :  cpu time    0.0482: real time    0.0483
    STRESS:  cpu time    0.1678: real time    0.1682
    FORCOR:  cpu time    0.3838: real time    0.3847
    FORHAR:  cpu time    0.1259: real time    0.1262
    MIXING:  cpu time    0.0106: real time    0.0106
    OFIELD:  cpu time    0.0000: real time    0.0000

  FORCE on cell =-STRESS in cart. coord.  units (eV):
  Direction    XX          YY          ZZ          XY          YZ          ZX
  --------------------------------------------------------------------------------------
  Alpha Z     0.96536     0.96536     0.96536
  Ewald      13.85417    16.08012    25.40842    -3.59405     2.23600     4.67461
  Hartree    71.72963    67.53143    75.98023    -0.61454     0.17991     1.36803
  E(xc)     -27.21934   -27.23976   -27.18943    -0.01746     0.01617     0.01709
  Local    -146.71035  -141.77620  -160.50641     3.33426    -1.88807    -5.13526
  n-local   -15.76250   -16.10453   -15.84728     0.04101     0.02299    -0.01422
  augment     0.13095     0.09878     0.11576     0.00796    -0.00354    -0.00678
  Kinetic   101.41644   102.30437    99.97402     0.76966    -0.84397    -0.86695
  Fock        0.00000     0.00000     0.00000     0.00000     0.00000     0.00000
  -------------------------------------------------------------------------------------
  Total      -1.59563     1.85957    -1.09934    -0.07316    -0.28051     0.03652
  in kB     -10.18752    11.87268    -7.01889    -0.46711    -1.79094     0.23318
  external pressure =       -1.78 kB  Pullay stress =        0.00 kB


 VOLUME and BASIS-vectors are now :
 -----------------------------------------------------------------------------
  energy-cutoff  :      400.00
  volume of cell :      250.94
      direct lattice vectors                 reciprocal lattice vectors
     6.309796300  0.000000000  0.000000000     0.158483722 -0.001786561 -0.004133316
     0.072185400  6.403482900  0.000000000    -0.000000000  0.156165015  0.003707173
     0.160316300 -0.147435500  6.210734400     0.000000000  0.000000000  0.161011554

  length of vectors
     6.309796300  6.403889754  6.214552303     0.158547678  0.156209010  0.161011554


 FORCES acting on ions
    electron-ion (+dipol)            ewald-force                    non-local-force                 convergence-correction
 -----------------------------------------------------------------------------------------------
   -.477E+01 -.170E+02 0.474E+02   0.547E+01 0.189E+02 -.520E+02   -.386E+00 -.171E+01 0.506E+01   -.174E-05 -.410E-06 0.669E-05
   -.277E+02 -.249E+02 -.347E+02   0.306E+02 0.275E+02 0.380E+02   -.289E+01 -.260E+01 -.377E+01   -.349E-05 0.525E-06 -.590E-05
   -.127E+02 0.524E+02 -.523E-01   0.146E+02 -.607E+02 0.177E+00   -.150E+01 0.626E+01 0.350E-01   -.254E-05 -.660E-05 -.593E-07
   0.470E+02 -.656E+01 -.114E+02   -.502E+02 0.686E+01 0.123E+02   0.458E+01 -.664E+00 -.107E+01   0.422E-05 -.192E-05 -.308E-05
   -.224E+00 -.607E+01 -.145E+01   -.451E+00 0.742E+01 0.159E+01   -.141E+01 0.889E+00 -.685E-01   -.801E-06 -.282E-04 0.290E-06
 -----------------------------------------------------------------------------------------------
   0.160E+01 -.217E+01 -.191E+00   -.711E-14 -.444E-14 0.533E-14   -.160E+01 0.217E+01 0.191E+00   -.436E-05 -.366E-04 -.206E-05


 POSITION                                       TOTAL-FORCE (eV/Angst)
 -----------------------------------------------------------------------------------
      3.38947      3.28992      1.72658         0.314892      0.198117      0.453652
      3.88976      3.46045      3.52237        -0.006059      0.021499     -0.475775
      3.53170      1.91170      2.76626         0.390246     -2.094003      0.159409
      2.18252      3.07412      3.03140         1.387476     -0.360588     -0.210504
      3.29176      2.92333      2.76603        -2.086554      2.234976      0.073218
 -----------------------------------------------------------------------------------
    total drift:                               -0.000514     -0.000442     -0.000152


--------------------------------------------------------------------------------------------------------



  FREE ENERGIE OF THE ION-ELECTRON SYSTEM (eV)
  ---------------------------------------------------
  free  energy   TOTEN  =       -23.85252277 eV

  energy  without entropy=      -23.85252277  energy(sigma->0) =      -23.85252277



--------------------------------------------------------------------------------------------------------


    POTLOK:  cpu time    0.3729: real time    0.3738


--------------------------------------------------------------------------------------------------------


     LOOP+:  cpu time    9.4594: real time    9.5258
    4ORBIT:  cpu time    0.0000: real time    0.0000

 total amount of memory used by VASP MPI-rank0    89165. kBytes
=======================================================================

   base      :      30000. kBytes
   nonlr-proj:       1160. kBytes
   fftplans  :      20656. kBytes
   grid      :      36747. kBytes
   one-center:         15. kBytes
   wavefun   :        587. kBytes

  
  
 General timing and accounting informations for this job:
 ========================================================
  
                  Total CPU time used (sec):       10.045
                            User time (sec):        9.786
                          System time (sec):        0.259
                         Elapsed time (sec):       10.139
  
                   Maximum memory used (kb):      110556.
                   Average memory used (kb):           0.
  
                          Minor page faults:        87906
                          Major page faults:            0
                 Voluntary context switches:          140
