 vasp.5.4.4.18Apr17-6-g9f103f2a35 (build Jul 12 2018 13:43:46) complex           
 executed on             LinuxGNU date 2019.06.24  12:44:32
 running on    1 total cores
 distrk:  each k-point on    1 cores,    1 groups
 distr:  one band on NCORES_PER_BAND=   1 cores,    1 groups


--------------------------------------------------------------------------------------------------------


 INCAR:
 POTCAR:    PAW_PBE H 15Jun2001                   
 POTCAR:    PAW_PBE C 08Apr2002                   
 POTCAR:    PAW_PBE H 15Jun2001                   
   VRHFIN =H: ultrasoft test                                                    
   LEXCH  = PE                                                                  
   EATOM  =    12.4884 eV,    0.9179 Ry                                         
                                                                                
   TITEL  = PAW_PBE H 15Jun2001                                                 
   LULTRA =        F    use ultrasoft PP ?                                      
   IUNSCR =        0    unscreen: 0-lin 1-nonlin 2-no                           
   RPACOR =    0.000    partial core radius                                     
   POMASS =    1.000; ZVAL   =    1.000    mass and valenz                      
   RCORE  =    1.100    outmost cutoff radius                                   
   RWIGS  =    0.700; RWIGS  =    0.370    wigner-seitz radius (au A)           
   ENMAX  =  250.000; ENMIN  =  200.000 eV                                      
   RCLOC  =    0.701    cutoff for local pot                                    
   LCOR   =        T    correct aug charges                                     
   LPAW   =        T    paw PP                                                  
   EAUG   =  400.000                                                            
   RMAX   =    1.123    core radius for proj-oper                               
   RAUG   =    1.200    factor for augmentation sphere                          
   RDEP   =    1.112    radius for radial grids                                 
   RDEPT  =    0.926    core radius for aug-charge                              
                                                                                
   Atomic configuration                                                         
    2 entries                                                                   
     n  l   j            E        occ.                                          
     1  0  0.50        -6.4927   1.0000                                         
     2  1  0.50        -3.4015   0.0000                                         
   Description                                                                  
     l       E           TYP  RCUT    TYP  RCUT                                 
     0     -6.4927494     23  1.100                                             
     0      6.8029130     23  1.100                                             
     1     -4.0817478     23  1.100                                             
  local pseudopotential read in
  atomic valenz-charges read in
  non local Contribution for L=           0  read in
    real space projection operators read in
  non local Contribution for L=           0  read in
    real space projection operators read in
  non local Contribution for L=           1  read in
    real space projection operators read in
    PAW grid and wavefunctions read in

   number of l-projection  operators is LMAX  =           3
   number of lm-projection operators is LMMAX =           5

 POTCAR:    PAW_PBE C 08Apr2002                   
   VRHFIN =C: s2p2                                                              
   LEXCH  = PE                                                                  
   EATOM  =   147.1560 eV,   10.8157 Ry                                         
                                                                                
   TITEL  = PAW_PBE C 08Apr2002                                                 
   LULTRA =        F    use ultrasoft PP ?                                      
   IUNSCR =        1    unscreen: 0-lin 1-nonlin 2-no                           
   RPACOR =    1.200    partial core radius                                     
   POMASS =   12.011; ZVAL   =    4.000    mass and valenz                      
   RCORE  =    1.500    outmost cutoff radius                                   
   RWIGS  =    1.630; RWIGS  =    0.863    wigner-seitz radius (au A)           
   ENMAX  =  400.000; ENMIN  =  300.000 eV                                      
   ICORE  =        2    local potential                                         
   LCOR   =        T    correct aug charges                                     
   LPAW   =        T    paw PP                                                  
   EAUG   =  644.873                                                            
   DEXC   =    0.000                                                            
   RMAX   =    1.529    core radius for proj-oper                               
   RAUG   =    1.300    factor for augmentation sphere                          
   RDEP   =    1.501    radius for radial grids                                 
   RDEPT  =    1.300    core radius for aug-charge                              
                                                                                
   Atomic configuration                                                         
    4 entries                                                                   
     n  l   j            E        occ.                                          
     1  0  0.50      -273.3789   2.0000                                         
     2  0  0.50       -13.7508   2.0000                                         
     2  1  0.50        -5.2854   2.0000                                         
     3  2  1.50        -5.4423   0.0000                                         
   Description                                                                  
     l       E           TYP  RCUT    TYP  RCUT                                 
     0    -13.7508458     23  1.200                                             
     0     -8.2022199     23  1.200                                             
     1     -5.2854383     23  1.500                                             
     1     34.0145650     23  1.500                                             
     2     -5.4423304      7  1.500                                             
  local pseudopotential read in
  partial core-charges read in
  partial kinetic energy density read in
  atomic valenz-charges read in
  non local Contribution for L=           0  read in
    real space projection operators read in
  non local Contribution for L=           0  read in
    real space projection operators read in
  non local Contribution for L=           1  read in
    real space projection operators read in
  non local Contribution for L=           1  read in
    real space projection operators read in
    PAW grid and wavefunctions read in

   number of l-projection  operators is LMAX  =           4
   number of lm-projection operators is LMMAX =           8


 ----------------------------------------------------------------------------- 
|                                                                             |
|  ADVICE TO THIS USER RUNNING 'VASP/VAMP'   (HEAR YOUR MASTER'S VOICE ...):  |
|                                                                             |
|      You have a (more or less) 'small supercell' and for smaller cells      |
|      it is recommended  to use the reciprocal-space projection scheme!      |
|      The real space optimization is not  efficient for small cells and it   |
|      is also less accurate ...                                              |
|      Therefore set LREAL=.FALSE. in the  INCAR file                         |
|                                                                             |
 ----------------------------------------------------------------------------- 

 Optimization of the real space projectors (new method)

 maximal supplied QI-value         = 34.20
 optimisation between [QCUT,QGAM] = [  9.92, 20.18] = [ 27.55,114.04] Ry 
 Optimized for a Real-space Cutoff    1.34 Angstroem

   l    n(q)    QCUT    max X(q) W(low)/X(q) W(high)/X(q)  e(spline) 
   0      8     9.919    19.460    0.16E-03    0.20E-03    0.36E-06
   0      8     9.919    12.209    0.16E-03    0.20E-03    0.35E-06
   1      8     9.919     4.655    0.19E-03    0.46E-03    0.40E-06
 Optimization of the real space projectors (new method)

 maximal supplied QI-value         = 25.13
 optimisation between [QCUT,QGAM] = [ 10.05, 20.36] = [ 28.30,116.06] Ry 
 Optimized for a Real-space Cutoff    1.51 Angstroem

   l    n(q)    QCUT    max X(q) W(low)/X(q) W(high)/X(q)  e(spline) 
   0      9    10.053   115.676    0.19E-03    0.21E-03    0.38E-06
   0      9    10.053    87.132    0.19E-03    0.21E-03    0.38E-06
   1      9    10.053     4.429    0.87E-04    0.11E-03    0.39E-06
   1      9    10.053     2.733    0.59E-04    0.62E-04    0.43E-06
  PAW_PBE H 15Jun2001                   :
 energy of atom  1       EATOM=  -12.4884
 kinetic energy error for atom=    0.0098 (will be added to EATOM!!)
  PAW_PBE C 08Apr2002                   :
 energy of atom  2       EATOM= -147.1560
 kinetic energy error for atom=    0.0288 (will be added to EATOM!!)


 POSCAR: POSCAR file written by OVITO            
  positions in cartesian coordinates
  No initial velocities read in
 exchange correlation table for  LEXCH =        8
   RHO(1)=    0.500       N(1)  =     2000
   RHO(2)=  100.500       N(2)  =     4000



--------------------------------------------------------------------------------------------------------


 ion  position               nearest neighbor table
   1  0.523  0.458  0.342-   5 1.09
   2  0.464  0.376  0.481-   5 1.06
   3  0.451  0.561  0.469-   5 1.10
   4  0.594  0.474  0.499-   5 1.11
   5  0.502  0.467  0.444-   2 1.06   1 1.09   3 1.10   4 1.11


IMPORTANT INFORMATION: All symmetrisations will be switched off!
NOSYMM: (Re-)initialisation of all symmetry stuff for point group C_1.




Automatic generation of k-mesh.
 generate k-points for:    1    1    1
Space group operators:
 irot       det(A)        alpha          n_x          n_y          n_z        tau_x        tau_y        tau_z
    1     1.000000     0.000000     1.000000     0.000000     0.000000     0.000000     0.000000     0.000000
 
 Subroutine IBZKPT returns following result:
 ===========================================
 
 Found      1 irreducible k-points:
 
 Following reciprocal coordinates:
            Coordinates               Weight
  0.000000  0.000000  0.000000      1.000000
 
 Following cartesian coordinates:
            Coordinates               Weight
  0.000000  0.000000  0.000000      1.000000
 


--------------------------------------------------------------------------------------------------------




 Dimension of arrays:
   k-points           NKPTS =      1   k-points in BZ     NKDIM =      1   number of bands    NBANDS=      8
   number of dos      NEDOS =    301   number of ions     NIONS =      5
   non local maximal  LDIM  =      4   non local SUM 2l+1 LMDIM =      8
   total plane-waves  NPLWV = 343000
   max r-space proj   IRMAX =   4650   max aug-charges    IRDMAX=   3974
   dimension x,y,z NGX =    70 NGY =   70 NGZ =   70
   dimension x,y,z NGXF=   140 NGYF=  140 NGZF=  140
   support grid    NGXF=   140 NGYF=  140 NGZF=  140
   ions per type =               4   1
   NGX,Y,Z   is equivalent  to a cutoff of  11.35, 11.57, 11.19 a.u.
   NGXF,Y,Z  is equivalent  to a cutoff of  22.71, 23.14, 22.37 a.u.

 SYSTEM =  unknown system                          
 POSCAR =  POSCAR file written by OVITO            

 Startparameter for this run:
   NWRITE =      2    write-flag & timer
   PREC   = a         normal or accurate (medium, high low for compatibility)
   ISTART =      0    job   : 0-new  1-cont  2-samecut
   ICHARG =      2    charge: 1-file 2-atom 10-const
   ISPIN  =      1    spin polarized calculation?
   LNONCOLLINEAR =      F non collinear calculations
   LSORBIT =      F    spin-orbit coupling
   INIWAV =      1    electr: 0-lowe 1-rand  2-diag
   LASPH  =      F    aspherical Exc in radial PAW
   METAGGA=      F    non-selfconsistent MetaGGA calc.

 Electronic Relaxation 1
   ENCUT  =  400.0 eV  29.40 Ry    5.42 a.u.  16.71 16.40 16.97*2*pi/ulx,y,z
   ENINI  =  400.0     initial cutoff
   ENAUG  =  644.9 eV  augmentation charge cutoff
   NELM   =    120;   NELMIN=  4; NELMDL= -5     # of ELM steps 
   EDIFF  = 0.1E-05   stopping-criterion for ELM
   LREAL  =      T    real-space projection
   NLSPLINE    = F    spline interpolate recip. space projectors
   LCOMPAT=      F    compatible to vasp.4.4
   GGA_COMPAT  = T    GGA compatible to vasp.4.4-vasp.4.6
   LMAXPAW     = -100 max onsite density
   LMAXMIX     =    2 max onsite mixed and CHGCAR
   VOSKOWN=      0    Vosko Wilk Nusair interpolation
   ROPT   =   -0.00025  -0.00025
 Ionic relaxation
   EDIFFG = 0.1E-04   stopping-criterion for IOM
   NSW    =      0    number of steps for IOM
   NBLOCK =      1;   KBLOCK =      1    inner block; outer block 
   IBRION =     -1    ionic relax: 0-MD 1-quasi-New 2-CG
   NFREE  =      0    steps in history (QN), initial steepest desc. (CG)
   ISIF   =      2    stress and relaxation
   IWAVPR =     10    prediction:  0-non 1-charg 2-wave 3-comb
   ISYM   =      0    0-nonsym 1-usesym 2-fastsym
   LCORR  =      T    Harris-Foulkes like correction to forces

   POTIM  = 0.5000    time-step for ionic-motion
   TEIN   =    0.0    initial temperature
   TEBEG  =    0.0;   TEEND  =   0.0 temperature during run
   SMASS  =  -3.00    Nose mass-parameter (am)
   estimated Nose-frequenzy (Omega)   =  0.10E-29 period in steps =****** mass=  -0.240E-26a.u.
   SCALEE = 1.0000    scale energy and forces
   NPACO  =    256;   APACO  = 16.0  distance and # of slots for P.C.
   PSTRESS=    0.0 pullay stress

  Mass of Ions in am
   POMASS =   1.00 12.01
  Ionic Valenz
   ZVAL   =   1.00  4.00
  Atomic Wigner-Seitz radii
   RWIGS  =  -1.00 -1.00
  virtual crystal weights 
   VCA    =   1.00  1.00
   NELECT =       8.0000    total number of electrons
   NUPDOWN=      -1.0000    fix difference up-down

 DOS related values:
   EMIN   =  10.00;   EMAX   =-10.00  energy-range for DOS
   EFERMI =   0.00
   ISMEAR =     0;   SIGMA  =   0.05  broadening in eV -4-tet -1-fermi 0-gaus

 Electronic relaxation 2 (details)
   IALGO  =     38    algorithm
   LDIAG  =      T    sub-space diagonalisation (order eigenvalues)
   LSUBROT=      F    optimize rotation matrix (better conditioning)
   TURBO    =      0    0=normal 1=particle mesh
   IRESTART =      0    0=no restart 2=restart with 2 vectors
   NREBOOT  =      0    no. of reboots
   NMIN     =      0    reboot dimension
   EREF     =   0.00    reference energy to select bands
   IMIX   =      4    mixing-type and parameters
     AMIX     =   0.40;   BMIX     =  1.00
     AMIX_MAG =   1.60;   BMIX_MAG =  1.00
     AMIN     =   0.10
     WC   =   100.;   INIMIX=   1;  MIXPRE=   1;  MAXMIX= -45

 Intra band minimization:
   WEIMIN = 0.0000     energy-eigenvalue tresh-hold
   EBREAK =  0.31E-07  absolut break condition
   DEPER  =   0.30     relativ break condition  

   TIME   =   0.40     timestep for ELM

  volume/ion in A,a.u.               =     214.44      1447.12
  Fermi-wavevector in a.u.,A,eV,Ry     =   0.319898  0.604520  1.392351  0.102335
  Thomas-Fermi vector in A             =   1.206035

 Write flags
   LWAVE        =      F    write WAVECAR
   LDOWNSAMPLE  =      F    k-point downsampling of WAVECAR
   LCHARG       =      F    write CHGCAR
   LVTOT        =      F    write LOCPOT, total local potential
   LVHAR        =      F    write LOCPOT, Hartree potential only
   LELF         =      F    write electronic localiz. function (ELF)
   LORBIT       =      0    0 simple, 1 ext, 2 COOP (PROOUT), +10 PAW based schemes


 Dipole corrections
   LMONO  =      F    monopole corrections only (constant potential shift)
   LDIPOL =      F    correct potential (dipole corrections)
   IDIPOL =      0    1-x, 2-y, 3-z, 4-all directions 
   EPSILON=  1.0000000 bulk dielectric constant

 Exchange correlation treatment:
   GGA     =    --    GGA type
   LEXCH   =     8    internal setting for exchange type
   VOSKOWN=      0    Vosko Wilk Nusair interpolation
   LHFCALC =     F    Hartree Fock is set to
   LHFONE  =     F    Hartree Fock one center treatment
   AEXX    =    0.0000 exact exchange contribution

 Linear response parameters
   LEPSILON=     F    determine dielectric tensor
   LRPA    =     F    only Hartree local field effects (RPA)
   LNABLA  =     F    use nabla operator in PAW spheres
   LVEL    =     F    velocity operator in full k-point grid
   LINTERFAST=   F  fast interpolation
   KINTER  =     0    interpolate to denser k-point grid
   CSHIFT  =0.1000    complex shift for real part using Kramers Kronig
   OMEGAMAX=  -1.0    maximum frequency
   DEG_THRESHOLD= 0.2000000E-02 threshold for treating states as degnerate
   RTIME   =   -0.100 relaxation time in fs
  (WPLASMAI=    0.000 imaginary part of plasma frequency in eV, 0.658/RTIME)
   DFIELD  = 0.0000000 0.0000000 0.0000000 field for delta impulse in time

 Orbital magnetization related:
   ORBITALMAG=     F  switch on orbital magnetization
   LCHIMAG   =     F  perturbation theory with respect to B field
   DQ        =  0.001000  dq finite difference perturbation B field
   LLRAUG    =     F  two centre corrections for induced B field



--------------------------------------------------------------------------------------------------------


 Static calculation
 charge density and potential will be updated during run
 non-spin polarized calculation
 Variant of blocked Davidson
 Davidson routine will perform the subspace rotation
 perform sub-space diagonalisation
    after iterative eigenvector-optimisation
 modified Broyden-mixing scheme, WC =      100.0
 initial mixing is a Kerker type mixing with AMIX =  0.4000 and BMIX =      1.0000
 Hartree-type preconditioning will be used
 using additional bands            4
 real space projection scheme for non local part
 use partial core corrections
 calculate Harris-corrections to forces   (improved forces if not selfconsistent)
 use gradient corrections 
 use of overlap-Matrix (Vanderbilt PP)
 Gauss-broadening in eV      SIGMA  =   0.05


--------------------------------------------------------------------------------------------------------


  energy-cutoff  :      400.00
  volume of cell :     1072.21
      direct lattice vectors                 reciprocal lattice vectors
    10.249501200  0.000000000  0.000000000     0.097565723 -0.000000703 -0.000615885
     0.000072422 10.056017900  0.000000000    -0.000000000  0.099442942  0.000981269
     0.065667000 -0.102651200 10.402792900     0.000000000  0.000000000  0.096128031

  length of vectors
    10.249501200 10.056017900 10.403506598     0.097567667  0.099447783  0.096128031



 k-points in units of 2pi/SCALE and weight: read from INCAR                         
   0.00000000  0.00000000  0.00000000       1.000

 k-points in reciprocal lattice and weights: read from INCAR                         
   0.00000000  0.00000000  0.00000000       1.000

 position of ions in fractional coordinates (direct lattice) 
   0.52307392  0.45794220  0.34162359
   0.46407939  0.37637976  0.48051034
   0.45111880  0.56075331  0.46934123
   0.59377682  0.47422011  0.49877083
   0.50168914  0.46729778  0.44430085

 position of ions in cartesian coordinates  (Angst):
   5.38371330  4.57000690  3.55383950
   4.78816320  3.73555660  4.99864960
   4.65460350  5.59076690  4.88245960
   6.11870340  4.71756650  5.18860960
   5.17127320  4.65354680  4.62196970



--------------------------------------------------------------------------------------------------------


 k-point  1 :   0.0000 0.0000 0.0000  plane waves:   19459

 maximum and minimum number of plane-waves per node :     19459    19459

 maximum number of plane-waves:     19459
 maximum index in each direction: 
   IXMAX=   16   IYMAX=   16   IZMAX=   16
   IXMIN=  -16   IYMIN=  -16   IZMIN=  -16


 serial   3D FFT for wavefunctions
 parallel 3D FFT for charge:
    minimum data exchange during FFTs selected (reduces bandwidth)


 total amount of memory used by VASP MPI-rank0   297494. kBytes
=======================================================================

   base      :      30000. kBytes
   nonlr-proj:       1255. kBytes
   fftplans  :      94700. kBytes
   grid      :     169030. kBytes
   one-center:         15. kBytes
   wavefun   :       2494. kBytes

     INWAV:  cpu time    0.0000: real time    0.0000
 Broyden mixing: mesh for mixing (old mesh)
   NGX = 33   NGY = 33   NGZ = 33
  (NGX  =140   NGY  =140   NGZ  =140)
  gives a total of  35937 points

 initial charge density was supplied:
 charge density of overlapping atoms calculated
 number of electron       8.0000000 magnetization 
 keeping initial charge density in first step


--------------------------------------------------------------------------------------------------------


 Maximum index for non-local projection operator         4454
 Maximum index for augmentation-charges         3658 (set IRDMAX)


--------------------------------------------------------------------------------------------------------


 First call to EWALD:  gamma=   0.173
 Maximum number of real-space cells 3x 3x 3
 Maximum number of reciprocal cells 3x 3x 3

    FEWALD:  cpu time    0.0007: real time    0.0007


--------------------------------------- Iteration      1(   1)  ---------------------------------------


    POTLOK:  cpu time    1.9422: real time    1.9470
    SETDIJ:  cpu time    0.0075: real time    0.0075
     EDDAV:  cpu time    0.6570: real time    0.6586
       DOS:  cpu time    0.0003: real time    0.0003
    --------------------------------------------
      LOOP:  cpu time    2.6071: real time    2.6134

 eigenvalue-minimisations  :    16
 total energy-change (2. order) : 0.5975874E+02  (-0.1438571E+03)
 number of electron       8.0000000 magnetization 
 augmentation part        8.0000000 magnetization 

 Free energy of the ion-electron system (eV)
  ---------------------------------------------------
  alpha Z        PSCENC =         0.22593655
  Ewald energy   TEWEN  =       133.34866308
  -Hartree energ DENC   =      -247.68157989
  -exchange      EXHF   =         0.00000000
  -V(xc)+E(xc)   XCENC  =        22.05015138
  PAW double counting   =       117.05815612     -117.66307307
  entropy T*S    EENTRO =        -0.00000000
  eigenvalues    EBANDS =       -44.62126861
  atomic energy  EATOM  =       197.04175453
  Solvation  Ediel_sol  =         0.00000000
  ---------------------------------------------------
  free energy    TOTEN  =        59.75874009 eV

  energy without entropy =       59.75874009  energy(sigma->0) =       59.75874009


--------------------------------------------------------------------------------------------------------




--------------------------------------- Iteration      1(   2)  ---------------------------------------


     EDDAV:  cpu time    1.2178: real time    1.2209
       DOS:  cpu time    0.0001: real time    0.0001
    --------------------------------------------
      LOOP:  cpu time    1.2179: real time    1.2211

 eigenvalue-minimisations  :    32
 total energy-change (2. order) :-0.7317938E+02  (-0.7317938E+02)
 number of electron       8.0000000 magnetization 
 augmentation part        8.0000000 magnetization 

 Free energy of the ion-electron system (eV)
  ---------------------------------------------------
  alpha Z        PSCENC =         0.22593655
  Ewald energy   TEWEN  =       133.34866308
  -Hartree energ DENC   =      -247.68157989
  -exchange      EXHF   =         0.00000000
  -V(xc)+E(xc)   XCENC  =        22.05015138
  PAW double counting   =       117.05815612     -117.66307307
  entropy T*S    EENTRO =        -0.00000000
  eigenvalues    EBANDS =      -117.80065042
  atomic energy  EATOM  =       197.04175453
  Solvation  Ediel_sol  =         0.00000000
  ---------------------------------------------------
  free energy    TOTEN  =       -13.42064172 eV

  energy without entropy =      -13.42064172  energy(sigma->0) =      -13.42064172


--------------------------------------------------------------------------------------------------------




--------------------------------------- Iteration      1(   3)  ---------------------------------------


     EDDAV:  cpu time    0.5808: real time    0.5822
       DOS:  cpu time    0.0006: real time    0.0006
    --------------------------------------------
      LOOP:  cpu time    0.5815: real time    0.5829

 eigenvalue-minimisations  :    16
 total energy-change (2. order) :-0.1346463E+02  (-0.1346463E+02)
 number of electron       8.0000000 magnetization 
 augmentation part        8.0000000 magnetization 

 Free energy of the ion-electron system (eV)
  ---------------------------------------------------
  alpha Z        PSCENC =         0.22593655
  Ewald energy   TEWEN  =       133.34866308
  -Hartree energ DENC   =      -247.68157989
  -exchange      EXHF   =         0.00000000
  -V(xc)+E(xc)   XCENC  =        22.05015138
  PAW double counting   =       117.05815612     -117.66307307
  entropy T*S    EENTRO =        -0.00000000
  eigenvalues    EBANDS =      -131.26528529
  atomic energy  EATOM  =       197.04175453
  Solvation  Ediel_sol  =         0.00000000
  ---------------------------------------------------
  free energy    TOTEN  =       -26.88527659 eV

  energy without entropy =      -26.88527659  energy(sigma->0) =      -26.88527659


--------------------------------------------------------------------------------------------------------




--------------------------------------- Iteration      1(   4)  ---------------------------------------


     EDDAV:  cpu time    0.9109: real time    0.9131
       DOS:  cpu time    0.0001: real time    0.0001
    --------------------------------------------
      LOOP:  cpu time    0.9111: real time    0.9132

 eigenvalue-minimisations  :    32
 total energy-change (2. order) :-0.6343087E+00  (-0.6343087E+00)
 number of electron       8.0000000 magnetization 
 augmentation part        8.0000000 magnetization 

 Free energy of the ion-electron system (eV)
  ---------------------------------------------------
  alpha Z        PSCENC =         0.22593655
  Ewald energy   TEWEN  =       133.34866308
  -Hartree energ DENC   =      -247.68157989
  -exchange      EXHF   =         0.00000000
  -V(xc)+E(xc)   XCENC  =        22.05015138
  PAW double counting   =       117.05815612     -117.66307307
  entropy T*S    EENTRO =        -0.00000000
  eigenvalues    EBANDS =      -131.89959398
  atomic energy  EATOM  =       197.04175453
  Solvation  Ediel_sol  =         0.00000000
  ---------------------------------------------------
  free energy    TOTEN  =       -27.51958527 eV

  energy without entropy =      -27.51958527  energy(sigma->0) =      -27.51958527


--------------------------------------------------------------------------------------------------------




--------------------------------------- Iteration      1(   5)  ---------------------------------------


     EDDAV:  cpu time    0.7080: real time    0.7097
       DOS:  cpu time    0.0001: real time    0.0001
    CHARGE:  cpu time    0.1052: real time    0.1054
    MIXING:  cpu time    0.0358: real time    0.0359
    --------------------------------------------
      LOOP:  cpu time    0.8490: real time    0.8511

 eigenvalue-minimisations  :    24
 total energy-change (2. order) :-0.2371561E-03  (-0.2371561E-03)
 number of electron       8.0000002 magnetization 
 augmentation part        0.2276829 magnetization 

 Broyden mixing:
  rms(total) = 0.88306E+00    rms(broyden)= 0.88280E+00
  rms(prec ) = 0.12338E+01
  weight for this iteration     100.00

 Free energy of the ion-electron system (eV)
  ---------------------------------------------------
  alpha Z        PSCENC =         0.22593655
  Ewald energy   TEWEN  =       133.34866308
  -Hartree energ DENC   =      -247.68157989
  -exchange      EXHF   =         0.00000000
  -V(xc)+E(xc)   XCENC  =        22.05015138
  PAW double counting   =       117.05815612     -117.66307307
  entropy T*S    EENTRO =        -0.00000000
  eigenvalues    EBANDS =      -131.89983113
  atomic energy  EATOM  =       197.04175453
  Solvation  Ediel_sol  =         0.00000000
  ---------------------------------------------------
  free energy    TOTEN  =       -27.51982243 eV

  energy without entropy =      -27.51982243  energy(sigma->0) =      -27.51982243


--------------------------------------------------------------------------------------------------------




--------------------------------------- Iteration      1(   6)  ---------------------------------------


    POTLOK:  cpu time    1.8322: real time    1.8366
    SETDIJ:  cpu time    0.0065: real time    0.0065
     EDDAV:  cpu time    0.7191: real time    0.7208
       DOS:  cpu time    0.0001: real time    0.0001
    CHARGE:  cpu time    0.0960: real time    0.0962
    MIXING:  cpu time    0.0367: real time    0.0368
    --------------------------------------------
      LOOP:  cpu time    2.6906: real time    2.6969

 eigenvalue-minimisations  :    24
 total energy-change (2. order) : 0.2964194E+01  (-0.8997459E+00)
 number of electron       8.0000001 magnetization 
 augmentation part        0.1992871 magnetization 

 Broyden mixing:
  rms(total) = 0.44970E+00    rms(broyden)= 0.44958E+00
  rms(prec ) = 0.55975E+00
  weight for this iteration     100.00

 eigenvalues of (default mixing * dielectric matrix)
  average eigenvalue GAMMA=   1.2019
  1.2019

 Free energy of the ion-electron system (eV)
  ---------------------------------------------------
  alpha Z        PSCENC =         0.22593655
  Ewald energy   TEWEN  =       133.34866308
  -Hartree energ DENC   =      -267.66594824
  -exchange      EXHF   =         0.00000000
  -V(xc)+E(xc)   XCENC  =        23.26177805
  PAW double counting   =       240.64254279     -241.42608612
  entropy T*S    EENTRO =        -0.00000000
  eigenvalues    EBANDS =      -109.98426918
  atomic energy  EATOM  =       197.04175453
  Solvation  Ediel_sol  =         0.00000000
  ---------------------------------------------------
  free energy    TOTEN  =       -24.55562854 eV

  energy without entropy =      -24.55562854  energy(sigma->0) =      -24.55562854


--------------------------------------------------------------------------------------------------------




--------------------------------------- Iteration      1(   7)  ---------------------------------------


    POTLOK:  cpu time    1.8077: real time    1.8120
    SETDIJ:  cpu time    0.0064: real time    0.0065
     EDDAV:  cpu time    0.7471: real time    0.7489
       DOS:  cpu time    0.0001: real time    0.0001
    CHARGE:  cpu time    0.1040: real time    0.1043
    MIXING:  cpu time    0.0379: real time    0.0380
    --------------------------------------------
      LOOP:  cpu time    2.7033: real time    2.7098

 eigenvalue-minimisations  :    24
 total energy-change (2. order) : 0.4933081E+00  (-0.7736421E-01)
 number of electron       8.0000001 magnetization 
 augmentation part        0.1906672 magnetization 

 Broyden mixing:
  rms(total) = 0.22788E+00    rms(broyden)= 0.22783E+00
  rms(prec ) = 0.27803E+00
  weight for this iteration     100.00

 eigenvalues of (default mixing * dielectric matrix)
  average eigenvalue GAMMA=   1.6911
  1.2560  2.1262

 Free energy of the ion-electron system (eV)
  ---------------------------------------------------
  alpha Z        PSCENC =         0.22593655
  Ewald energy   TEWEN  =       133.34866308
  -Hartree energ DENC   =      -277.92446866
  -exchange      EXHF   =         0.00000000
  -V(xc)+E(xc)   XCENC  =        24.02922656
  PAW double counting   =       371.67478778     -372.48782244
  entropy T*S    EENTRO =        -0.00000000
  eigenvalues    EBANDS =       -99.97039788
  atomic energy  EATOM  =       197.04175453
  Solvation  Ediel_sol  =         0.00000000
  ---------------------------------------------------
  free energy    TOTEN  =       -24.06232047 eV

  energy without entropy =      -24.06232047  energy(sigma->0) =      -24.06232047


--------------------------------------------------------------------------------------------------------




--------------------------------------- Iteration      1(   8)  ---------------------------------------


    POTLOK:  cpu time    1.7906: real time    1.7949
    SETDIJ:  cpu time    0.0063: real time    0.0063
     EDDAV:  cpu time    0.7315: real time    0.7333
       DOS:  cpu time    0.0001: real time    0.0001
    CHARGE:  cpu time    0.1005: real time    0.1007
    MIXING:  cpu time    0.0379: real time    0.0380
    --------------------------------------------
      LOOP:  cpu time    2.6670: real time    2.6734

 eigenvalue-minimisations  :    24
 total energy-change (2. order) : 0.1630715E+00  (-0.1737843E-01)
 number of electron       8.0000001 magnetization 
 augmentation part        0.1880383 magnetization 

 Broyden mixing:
  rms(total) = 0.26901E-01    rms(broyden)= 0.26868E-01
  rms(prec ) = 0.55120E-01
  weight for this iteration     100.00

 eigenvalues of (default mixing * dielectric matrix)
  average eigenvalue GAMMA=   1.5643
  2.1689  1.1130  1.4110

 Free energy of the ion-electron system (eV)
  ---------------------------------------------------
  alpha Z        PSCENC =         0.22593655
  Ewald energy   TEWEN  =       133.34866308
  -Hartree energ DENC   =      -284.91391060
  -exchange      EXHF   =         0.00000000
  -V(xc)+E(xc)   XCENC  =        24.64873559
  PAW double counting   =       486.30554164     -487.10477364
  entropy T*S    EENTRO =        -0.00000000
  eigenvalues    EBANDS =       -93.45119614
  atomic energy  EATOM  =       197.04175453
  Solvation  Ediel_sol  =         0.00000000
  ---------------------------------------------------
  free energy    TOTEN  =       -23.89924899 eV

  energy without entropy =      -23.89924899  energy(sigma->0) =      -23.89924899


--------------------------------------------------------------------------------------------------------




--------------------------------------- Iteration      1(   9)  ---------------------------------------


    POTLOK:  cpu time    1.8212: real time    1.8256
    SETDIJ:  cpu time    0.0062: real time    0.0063
     EDDAV:  cpu time    0.9635: real time    0.9658
       DOS:  cpu time    0.0001: real time    0.0001
    CHARGE:  cpu time    0.0969: real time    0.0971
    MIXING:  cpu time    0.0412: real time    0.0413
    --------------------------------------------
      LOOP:  cpu time    2.9292: real time    2.9361

 eigenvalue-minimisations  :    32
 total energy-change (2. order) : 0.8016132E-02  (-0.3769744E-03)
 number of electron       8.0000001 magnetization 
 augmentation part        0.1875108 magnetization 

 Broyden mixing:
  rms(total) = 0.16744E-01    rms(broyden)= 0.16739E-01
  rms(prec ) = 0.36343E-01
  weight for this iteration     100.00

 eigenvalues of (default mixing * dielectric matrix)
  average eigenvalue GAMMA=   1.8886
  2.9228  2.4468  0.9687  1.2159

 Free energy of the ion-electron system (eV)
  ---------------------------------------------------
  alpha Z        PSCENC =         0.22593655
  Ewald energy   TEWEN  =       133.34866308
  -Hartree energ DENC   =      -286.33300021
  -exchange      EXHF   =         0.00000000
  -V(xc)+E(xc)   XCENC  =        24.72955549
  PAW double counting   =       486.24660527     -487.04278919
  entropy T*S    EENTRO =        -0.00000000
  eigenvalues    EBANDS =       -92.10795838
  atomic energy  EATOM  =       197.04175453
  Solvation  Ediel_sol  =         0.00000000
  ---------------------------------------------------
  free energy    TOTEN  =       -23.89123285 eV

  energy without entropy =      -23.89123285  energy(sigma->0) =      -23.89123285


--------------------------------------------------------------------------------------------------------




--------------------------------------- Iteration      1(  10)  ---------------------------------------


    POTLOK:  cpu time    1.7371: real time    1.7412
    SETDIJ:  cpu time    0.0063: real time    0.0063
     EDDAV:  cpu time    0.5463: real time    0.5477
       DOS:  cpu time    0.0001: real time    0.0001
    CHARGE:  cpu time    0.1002: real time    0.1004
    MIXING:  cpu time    0.0422: real time    0.0423
    --------------------------------------------
      LOOP:  cpu time    2.4322: real time    2.4379

 eigenvalue-minimisations  :    16
 total energy-change (2. order) : 0.9181600E-02  (-0.5740091E-03)
 number of electron       8.0000001 magnetization 
 augmentation part        0.1873010 magnetization 

 Broyden mixing:
  rms(total) = 0.68405E-02    rms(broyden)= 0.68389E-02
  rms(prec ) = 0.16524E-01
  weight for this iteration     100.00

 eigenvalues of (default mixing * dielectric matrix)
  average eigenvalue GAMMA=   1.8443
  3.0496  2.3049  0.9900  1.2184  1.6587

 Free energy of the ion-electron system (eV)
  ---------------------------------------------------
  alpha Z        PSCENC =         0.22593655
  Ewald energy   TEWEN  =       133.34866308
  -Hartree energ DENC   =      -287.95343082
  -exchange      EXHF   =         0.00000000
  -V(xc)+E(xc)   XCENC  =        24.80013605
  PAW double counting   =       476.15309060     -476.94518542
  entropy T*S    EENTRO =        -0.00000000
  eigenvalues    EBANDS =       -90.55301583
  atomic energy  EATOM  =       197.04175453
  Solvation  Ediel_sol  =         0.00000000
  ---------------------------------------------------
  free energy    TOTEN  =       -23.88205125 eV

  energy without entropy =      -23.88205125  energy(sigma->0) =      -23.88205125


--------------------------------------------------------------------------------------------------------




--------------------------------------- Iteration      1(  11)  ---------------------------------------


    POTLOK:  cpu time    1.6696: real time    1.6736
    SETDIJ:  cpu time    0.0063: real time    0.0064
     EDDAV:  cpu time    0.7380: real time    0.7398
       DOS:  cpu time    0.0001: real time    0.0001
    CHARGE:  cpu time    0.1009: real time    0.1011
    MIXING:  cpu time    0.0440: real time    0.0441
    --------------------------------------------
      LOOP:  cpu time    2.5589: real time    2.5650

 eigenvalue-minimisations  :    24
 total energy-change (2. order) :-0.6485661E-02  (-0.2339210E-03)
 number of electron       8.0000001 magnetization 
 augmentation part        0.1869399 magnetization 

 Broyden mixing:
  rms(total) = 0.45037E-02    rms(broyden)= 0.45027E-02
  rms(prec ) = 0.98249E-02
  weight for this iteration     100.00

 eigenvalues of (default mixing * dielectric matrix)
  average eigenvalue GAMMA=   2.0921
  4.2819  2.8201  2.1905  1.2566  1.0018  1.0018

 Free energy of the ion-electron system (eV)
  ---------------------------------------------------
  alpha Z        PSCENC =         0.22593655
  Ewald energy   TEWEN  =       133.34866308
  -Hartree energ DENC   =      -288.70571815
  -exchange      EXHF   =         0.00000000
  -V(xc)+E(xc)   XCENC  =        24.82834248
  PAW double counting   =       478.15835821     -478.95188830
  entropy T*S    EENTRO =        -0.00000000
  eigenvalues    EBANDS =       -89.83398531
  atomic energy  EATOM  =       197.04175453
  Solvation  Ediel_sol  =         0.00000000
  ---------------------------------------------------
  free energy    TOTEN  =       -23.88853692 eV

  energy without entropy =      -23.88853692  energy(sigma->0) =      -23.88853692


--------------------------------------------------------------------------------------------------------




--------------------------------------- Iteration      1(  12)  ---------------------------------------


    POTLOK:  cpu time    1.6288: real time    1.6326
    SETDIJ:  cpu time    0.0070: real time    0.0070
     EDDAV:  cpu time    0.5216: real time    0.5228
       DOS:  cpu time    0.0001: real time    0.0001
    CHARGE:  cpu time    0.0962: real time    0.0964
    MIXING:  cpu time    0.0409: real time    0.0410
    --------------------------------------------
      LOOP:  cpu time    2.2945: real time    2.3000

 eigenvalue-minimisations  :    16
 total energy-change (2. order) :-0.4486856E-02  (-0.6220329E-04)
 number of electron       8.0000001 magnetization 
 augmentation part        0.1870458 magnetization 

 Broyden mixing:
  rms(total) = 0.24275E-02    rms(broyden)= 0.24274E-02
  rms(prec ) = 0.53731E-02
  weight for this iteration     100.00

 eigenvalues of (default mixing * dielectric matrix)
  average eigenvalue GAMMA=   2.3147
  5.1107  3.2666  2.6052  1.9515  1.2522  1.0082  1.0082

 Free energy of the ion-electron system (eV)
  ---------------------------------------------------
  alpha Z        PSCENC =         0.22593655
  Ewald energy   TEWEN  =       133.34866308
  -Hartree energ DENC   =      -288.64621021
  -exchange      EXHF   =         0.00000000
  -V(xc)+E(xc)   XCENC  =        24.80964119
  PAW double counting   =       475.05836418     -475.85147950
  entropy T*S    EENTRO =        -0.00000000
  eigenvalues    EBANDS =       -89.87969358
  atomic energy  EATOM  =       197.04175453
  Solvation  Ediel_sol  =         0.00000000
  ---------------------------------------------------
  free energy    TOTEN  =       -23.89302377 eV

  energy without entropy =      -23.89302377  energy(sigma->0) =      -23.89302377


--------------------------------------------------------------------------------------------------------




--------------------------------------- Iteration      1(  13)  ---------------------------------------


    POTLOK:  cpu time    1.5584: real time    1.5621
    SETDIJ:  cpu time    0.0068: real time    0.0069
     EDDAV:  cpu time    0.9598: real time    0.9621
       DOS:  cpu time    0.0001: real time    0.0001
    CHARGE:  cpu time    0.1021: real time    0.1024
    MIXING:  cpu time    0.0422: real time    0.0423
    --------------------------------------------
      LOOP:  cpu time    2.6695: real time    2.6758

 eigenvalue-minimisations  :    32
 total energy-change (2. order) :-0.4186131E-02  (-0.1007144E-03)
 number of electron       8.0000001 magnetization 
 augmentation part        0.1870180 magnetization 

 Broyden mixing:
  rms(total) = 0.27524E-02    rms(broyden)= 0.27520E-02
  rms(prec ) = 0.37028E-02
  weight for this iteration     100.00

 eigenvalues of (default mixing * dielectric matrix)
  average eigenvalue GAMMA=   2.2638
  5.8184  3.4847  2.4659  2.1606  1.2743  1.0583  0.9855  0.8631

 Free energy of the ion-electron system (eV)
  ---------------------------------------------------
  alpha Z        PSCENC =         0.22593655
  Ewald energy   TEWEN  =       133.34866308
  -Hartree energ DENC   =      -288.76742141
  -exchange      EXHF   =         0.00000000
  -V(xc)+E(xc)   XCENC  =        24.81203802
  PAW double counting   =       477.51716681     -478.30967222
  entropy T*S    EENTRO =        -0.00000000
  eigenvalues    EBANDS =       -89.76567527
  atomic energy  EATOM  =       197.04175453
  Solvation  Ediel_sol  =         0.00000000
  ---------------------------------------------------
  free energy    TOTEN  =       -23.89720990 eV

  energy without entropy =      -23.89720990  energy(sigma->0) =      -23.89720990


--------------------------------------------------------------------------------------------------------




--------------------------------------- Iteration      1(  14)  ---------------------------------------


    POTLOK:  cpu time    1.5711: real time    1.5748
    SETDIJ:  cpu time    0.0062: real time    0.0062
     EDDAV:  cpu time    0.5250: real time    0.5263
       DOS:  cpu time    0.0001: real time    0.0001
    CHARGE:  cpu time    0.1035: real time    0.1037
    MIXING:  cpu time    0.0436: real time    0.0437
    --------------------------------------------
      LOOP:  cpu time    2.2494: real time    2.2548

 eigenvalue-minimisations  :    16
 total energy-change (2. order) :-0.7256719E-03  (-0.7683673E-05)
 number of electron       8.0000001 magnetization 
 augmentation part        0.1870152 magnetization 

 Broyden mixing:
  rms(total) = 0.78892E-03    rms(broyden)= 0.78873E-03
  rms(prec ) = 0.16347E-02
  weight for this iteration     100.00

 eigenvalues of (default mixing * dielectric matrix)
  average eigenvalue GAMMA=   2.5321
  6.9501  4.3865  2.8536  2.3263  1.9469  1.2843  0.9805  0.9805  1.0799

 Free energy of the ion-electron system (eV)
  ---------------------------------------------------
  alpha Z        PSCENC =         0.22593655
  Ewald energy   TEWEN  =       133.34866308
  -Hartree energ DENC   =      -288.70716287
  -exchange      EXHF   =         0.00000000
  -V(xc)+E(xc)   XCENC  =        24.80467423
  PAW double counting   =       476.14098969     -476.93383914
  entropy T*S    EENTRO =        -0.00000000
  eigenvalues    EBANDS =       -89.81895164
  atomic energy  EATOM  =       197.04175453
  Solvation  Ediel_sol  =         0.00000000
  ---------------------------------------------------
  free energy    TOTEN  =       -23.89793557 eV

  energy without entropy =      -23.89793557  energy(sigma->0) =      -23.89793557


--------------------------------------------------------------------------------------------------------




--------------------------------------- Iteration      1(  15)  ---------------------------------------


    POTLOK:  cpu time    1.5315: real time    1.5353
    SETDIJ:  cpu time    0.0062: real time    0.0062
     EDDAV:  cpu time    0.5097: real time    0.5109
       DOS:  cpu time    0.0001: real time    0.0001
    CHARGE:  cpu time    0.0986: real time    0.0989
    MIXING:  cpu time    0.0431: real time    0.0432
    --------------------------------------------
      LOOP:  cpu time    2.1893: real time    2.1947

 eigenvalue-minimisations  :    16
 total energy-change (2. order) :-0.6580466E-03  (-0.7883851E-05)
 number of electron       8.0000001 magnetization 
 augmentation part        0.1870101 magnetization 

 Broyden mixing:
  rms(total) = 0.50157E-03    rms(broyden)= 0.50155E-03
  rms(prec ) = 0.72393E-03
  weight for this iteration     100.00

 eigenvalues of (default mixing * dielectric matrix)
  average eigenvalue GAMMA=   2.4536
  7.3621  4.5154  2.8145  2.4610  2.0241  1.2864  1.0645  1.0047  1.0016  1.0016

 Free energy of the ion-electron system (eV)
  ---------------------------------------------------
  alpha Z        PSCENC =         0.22593655
  Ewald energy   TEWEN  =       133.34866308
  -Hartree energ DENC   =      -288.70090282
  -exchange      EXHF   =         0.00000000
  -V(xc)+E(xc)   XCENC  =        24.80366445
  PAW double counting   =       476.01305166     -476.80585066
  entropy T*S    EENTRO =        -0.00000000
  eigenvalues    EBANDS =       -89.82491041
  atomic energy  EATOM  =       197.04175453
  Solvation  Ediel_sol  =         0.00000000
  ---------------------------------------------------
  free energy    TOTEN  =       -23.89859362 eV

  energy without entropy =      -23.89859362  energy(sigma->0) =      -23.89859362


--------------------------------------------------------------------------------------------------------




--------------------------------------- Iteration      1(  16)  ---------------------------------------


    POTLOK:  cpu time    1.5357: real time    1.5393
    SETDIJ:  cpu time    0.0062: real time    0.0062
     EDDAV:  cpu time    0.9195: real time    0.9217
       DOS:  cpu time    0.0001: real time    0.0001
    CHARGE:  cpu time    0.0976: real time    0.0978
    MIXING:  cpu time    0.0464: real time    0.0465
    --------------------------------------------
      LOOP:  cpu time    2.6054: real time    2.6116

 eigenvalue-minimisations  :    32
 total energy-change (2. order) :-0.6674963E-04  (-0.1972742E-06)
 number of electron       8.0000001 magnetization 
 augmentation part        0.1870131 magnetization 

 Broyden mixing:
  rms(total) = 0.30194E-03    rms(broyden)= 0.30192E-03
  rms(prec ) = 0.46275E-03
  weight for this iteration     100.00

 eigenvalues of (default mixing * dielectric matrix)
  average eigenvalue GAMMA=   2.6547
  8.3439  4.9439  3.6386  2.6246  2.2721  2.0192  1.3069  1.1135  0.9698  0.9698
  0.9997

 Free energy of the ion-electron system (eV)
  ---------------------------------------------------
  alpha Z        PSCENC =         0.22593655
  Ewald energy   TEWEN  =       133.34866308
  -Hartree energ DENC   =      -288.70544059
  -exchange      EXHF   =         0.00000000
  -V(xc)+E(xc)   XCENC  =        24.80383049
  PAW double counting   =       476.00248234     -476.79526056
  entropy T*S    EENTRO =        -0.00000000
  eigenvalues    EBANDS =       -89.82062621
  atomic energy  EATOM  =       197.04175453
  Solvation  Ediel_sol  =         0.00000000
  ---------------------------------------------------
  free energy    TOTEN  =       -23.89866037 eV

  energy without entropy =      -23.89866037  energy(sigma->0) =      -23.89866037


--------------------------------------------------------------------------------------------------------




--------------------------------------- Iteration      1(  17)  ---------------------------------------


    POTLOK:  cpu time    1.6626: real time    1.6666
    SETDIJ:  cpu time    0.0062: real time    0.0062
     EDDAV:  cpu time    0.5336: real time    0.5348
       DOS:  cpu time    0.0001: real time    0.0001
    CHARGE:  cpu time    0.1036: real time    0.1039
    MIXING:  cpu time    0.0487: real time    0.0488
    --------------------------------------------
      LOOP:  cpu time    2.3547: real time    2.3604

 eigenvalue-minimisations  :    16
 total energy-change (2. order) :-0.7552551E-04  (-0.4121647E-06)
 number of electron       8.0000001 magnetization 
 augmentation part        0.1870054 magnetization 

 Broyden mixing:
  rms(total) = 0.87897E-04    rms(broyden)= 0.87877E-04
  rms(prec ) = 0.14048E-03
  weight for this iteration     100.00

 eigenvalues of (default mixing * dielectric matrix)
  average eigenvalue GAMMA=   2.5831
  8.6097  5.2448  3.7486  2.6868  2.3592  1.9027  1.2825  1.1210  0.9607  0.9607
  1.0602  1.0602

 Free energy of the ion-electron system (eV)
  ---------------------------------------------------
  alpha Z        PSCENC =         0.22593655
  Ewald energy   TEWEN  =       133.34866308
  -Hartree energ DENC   =      -288.72349257
  -exchange      EXHF   =         0.00000000
  -V(xc)+E(xc)   XCENC  =        24.80487424
  PAW double counting   =       476.10800404     -476.90082000
  entropy T*S    EENTRO =        -0.00000000
  eigenvalues    EBANDS =       -89.80365576
  atomic energy  EATOM  =       197.04175453
  Solvation  Ediel_sol  =         0.00000000
  ---------------------------------------------------
  free energy    TOTEN  =       -23.89873590 eV

  energy without entropy =      -23.89873590  energy(sigma->0) =      -23.89873590


--------------------------------------------------------------------------------------------------------




--------------------------------------- Iteration      1(  18)  ---------------------------------------


    POTLOK:  cpu time    1.6417: real time    1.6456
    SETDIJ:  cpu time    0.0067: real time    0.0067
     EDDAV:  cpu time    0.9387: real time    0.9409
       DOS:  cpu time    0.0001: real time    0.0001
    CHARGE:  cpu time    0.0974: real time    0.0976
    MIXING:  cpu time    0.0463: real time    0.0464
    --------------------------------------------
      LOOP:  cpu time    2.7308: real time    2.7373

 eigenvalue-minimisations  :    32
 total energy-change (2. order) :-0.4696814E-05  (-0.2597954E-07)
 number of electron       8.0000001 magnetization 
 augmentation part        0.1870088 magnetization 

 Broyden mixing:
  rms(total) = 0.64891E-04    rms(broyden)= 0.64879E-04
  rms(prec ) = 0.92339E-04
  weight for this iteration     100.00

 eigenvalues of (default mixing * dielectric matrix)
  average eigenvalue GAMMA=   2.6115
  8.7188  5.3882  3.7856  2.6019  2.6019  2.4477  1.8958  1.3157  1.2213  1.0229
  1.0229  0.9737  0.9525

 Free energy of the ion-electron system (eV)
  ---------------------------------------------------
  alpha Z        PSCENC =         0.22593655
  Ewald energy   TEWEN  =       133.34866308
  -Hartree energ DENC   =      -288.72110848
  -exchange      EXHF   =         0.00000000
  -V(xc)+E(xc)   XCENC  =        24.80478335
  PAW double counting   =       476.13241028     -476.92519787
  entropy T*S    EENTRO =        -0.00000000
  eigenvalues    EBANDS =       -89.80598205
  atomic energy  EATOM  =       197.04175453
  Solvation  Ediel_sol  =         0.00000000
  ---------------------------------------------------
  free energy    TOTEN  =       -23.89874059 eV

  energy without entropy =      -23.89874059  energy(sigma->0) =      -23.89874059


--------------------------------------------------------------------------------------------------------




--------------------------------------- Iteration      1(  19)  ---------------------------------------


    POTLOK:  cpu time    1.6756: real time    1.6796
    SETDIJ:  cpu time    0.0062: real time    0.0062
     EDDAV:  cpu time    0.5156: real time    0.5168
       DOS:  cpu time    0.0001: real time    0.0001
    CHARGE:  cpu time    0.0969: real time    0.0972
    MIXING:  cpu time    0.0480: real time    0.0481
    --------------------------------------------
      LOOP:  cpu time    2.3424: real time    2.3479

 eigenvalue-minimisations  :    16
 total energy-change (2. order) :-0.5694514E-05  (-0.1943159E-07)
 number of electron       8.0000001 magnetization 
 augmentation part        0.1870091 magnetization 

 Broyden mixing:
  rms(total) = 0.26213E-04    rms(broyden)= 0.26211E-04
  rms(prec ) = 0.39176E-04
  weight for this iteration     100.00

 eigenvalues of (default mixing * dielectric matrix)
  average eigenvalue GAMMA=   2.5564
  8.8447  5.5286  4.1036  3.1177  2.6155  2.3202  1.8630  1.3037  1.1774  0.9754
  0.9574  0.9574  1.0128  1.0128

 Free energy of the ion-electron system (eV)
  ---------------------------------------------------
  alpha Z        PSCENC =         0.22593655
  Ewald energy   TEWEN  =       133.34866308
  -Hartree energ DENC   =      -288.71976413
  -exchange      EXHF   =         0.00000000
  -V(xc)+E(xc)   XCENC  =        24.80462974
  PAW double counting   =       476.12020094     -476.91297644
  entropy T*S    EENTRO =        -0.00000000
  eigenvalues    EBANDS =       -89.80719056
  atomic energy  EATOM  =       197.04175453
  Solvation  Ediel_sol  =         0.00000000
  ---------------------------------------------------
  free energy    TOTEN  =       -23.89874629 eV

  energy without entropy =      -23.89874629  energy(sigma->0) =      -23.89874629


--------------------------------------------------------------------------------------------------------




--------------------------------------- Iteration      1(  20)  ---------------------------------------


    POTLOK:  cpu time    1.6787: real time    1.6827
    SETDIJ:  cpu time    0.0062: real time    0.0062
     EDDAV:  cpu time    0.9120: real time    0.9141
       DOS:  cpu time    0.0001: real time    0.0001
    --------------------------------------------
      LOOP:  cpu time    2.5969: real time    2.6030

 eigenvalue-minimisations  :    32
 total energy-change (2. order) :-0.2779577E-06  (-0.1178961E-08)
 number of electron       8.0000001 magnetization 
 augmentation part        0.1870091 magnetization 

 Free energy of the ion-electron system (eV)
  ---------------------------------------------------
  alpha Z        PSCENC =         0.22593655
  Ewald energy   TEWEN  =       133.34866308
  -Hartree energ DENC   =      -288.72021742
  -exchange      EXHF   =         0.00000000
  -V(xc)+E(xc)   XCENC  =        24.80465763
  PAW double counting   =       476.12684424     -476.91962447
  entropy T*S    EENTRO =        -0.00000000
  eigenvalues    EBANDS =       -89.80676070
  atomic energy  EATOM  =       197.04175453
  Solvation  Ediel_sol  =         0.00000000
  ---------------------------------------------------
  free energy    TOTEN  =       -23.89874657 eV

  energy without entropy =      -23.89874657  energy(sigma->0) =      -23.89874657


--------------------------------------------------------------------------------------------------------




 average (electrostatic) potential at core
  the test charge radii are     0.5201  0.6991
  (the norm of the test charge is              1.0000)
       1 -41.5680       2 -41.8290       3 -41.5428       4 -41.3546       5 -57.9425



 E-fermi :  -8.4411     XC(G=0):  -0.6572     alpha+bet : -0.1965


 k-point     1 :       0.0000    0.0000    0.0000
  band No.  band energies     occupation 
      1     -16.9759      2.00000
      2      -9.7417      2.00000
      3      -9.4805      2.00000
      4      -8.7054      2.00000
      5      -0.5196      0.00000
      6       0.9155      0.00000
      7       0.9667      0.00000
      8       1.0087      0.00000


--------------------------------------------------------------------------------------------------------


 soft charge-density along one line, spin component           1
         0         1         2         3         4         5         6         7         8         9
 total charge-density along one line

 pseudopotential strength for first ion, spin component:           1
 -2.342  -4.035  -0.000  -0.002   0.000
 -4.035  -6.868  -0.000  -0.005   0.001
 -0.000  -0.000  -0.338   0.000  -0.000
 -0.002  -0.005   0.000  -0.334  -0.001
  0.000   0.001  -0.000  -0.001  -0.338
 total augmentation occupancy for first ion, spin component:           1
  3.557  -0.640   0.034   0.426  -0.086
 -0.640   0.128  -0.006  -0.079   0.016
  0.034  -0.006   0.009   0.003  -0.000
  0.426  -0.079   0.003   0.052  -0.009
 -0.086   0.016  -0.000  -0.009   0.011


------------------------ aborting loop because EDIFF is reached ----------------------------------------


    CHARGE:  cpu time    0.0997: real time    0.1000
    FORLOC:  cpu time    0.1334: real time    0.1338
    FORNL :  cpu time    0.1889: real time    0.1894
    STRESS:  cpu time    0.6565: real time    0.6580
    FORCOR:  cpu time    1.8028: real time    1.8071
    FORHAR:  cpu time    0.5795: real time    0.5808
    MIXING:  cpu time    0.0488: real time    0.0489
    OFIELD:  cpu time    0.0000: real time    0.0000

  FORCE on cell =-STRESS in cart. coord.  units (eV):
  Direction    XX          YY          ZZ          XY          YZ          ZX
  --------------------------------------------------------------------------------------
  Alpha Z     0.22594     0.22594     0.22594
  Ewald      31.27482    55.88619    46.18763    -2.39401    -0.63723     0.71874
  Hartree    92.77945   100.58816    95.35298    -0.89412     0.02049     0.60706
  E(xc)     -27.33617   -27.23450   -27.25718    -0.01757     0.00284     0.01081
  Local    -185.24497  -213.22651  -199.54777     3.04137     0.28766    -1.43128
  n-local   -16.10372   -16.01952   -16.01000    -0.08134     0.04194    -0.02914
  augment     0.13000     0.09657     0.10735     0.00029     0.00383     0.00142
  Kinetic   104.79411    99.52762   100.47874     1.05033    -0.13756    -0.29714
  Fock        0.00000     0.00000     0.00000     0.00000     0.00000     0.00000
  -------------------------------------------------------------------------------------
  Total       0.51945    -0.15607    -0.46231     0.70496    -0.41803    -0.41953
  in kB       0.77620    -0.23321    -0.69083     1.05340    -0.62466    -0.62689
  external pressure =       -0.05 kB  Pullay stress =        0.00 kB


 VOLUME and BASIS-vectors are now :
 -----------------------------------------------------------------------------
  energy-cutoff  :      400.00
  volume of cell :     1072.21
      direct lattice vectors                 reciprocal lattice vectors
    10.249501200  0.000000000  0.000000000     0.097565723 -0.000000703 -0.000615885
     0.000072422 10.056017900  0.000000000    -0.000000000  0.099442942  0.000981269
     0.065667000 -0.102651200 10.402792900     0.000000000  0.000000000  0.096128031

  length of vectors
    10.249501200 10.056017900 10.403506598     0.097567667  0.099447783  0.096128031


 FORCES acting on ions
    electron-ion (+dipol)            ewald-force                    non-local-force                 convergence-correction
 -----------------------------------------------------------------------------------------------
   -.968E+01 0.393E+01 0.521E+02   0.108E+02 -.427E+01 -.577E+02   -.110E+01 0.448E+00 0.545E+01   0.191E-04 -.119E-04 -.249E-04
   0.204E+02 0.469E+02 -.189E+02   -.236E+02 -.528E+02 0.213E+02   0.198E+01 0.524E+01 -.215E+01   0.522E-05 0.147E-05 0.225E-04
   0.252E+02 -.447E+02 -.120E+02   -.281E+02 0.489E+02 0.132E+02   0.242E+01 -.469E+01 -.131E+01   -.688E-05 -.248E-05 0.279E-04
   -.453E+02 -.327E+01 -.270E+02   0.500E+02 0.371E+01 0.294E+02   -.449E+01 -.277E+00 -.280E+01   0.111E-04 -.117E-04 0.173E-04
   0.865E+01 -.379E+01 0.563E+01   -.907E+01 0.451E+01 -.617E+01   0.187E+01 0.227E+00 0.919E+00   0.118E-03 -.967E-04 0.149E-03
 -----------------------------------------------------------------------------------------------
   -.689E+00 -.948E+00 -.108E+00   -.711E-14 0.178E-14 -.711E-14   0.688E+00 0.949E+00 0.108E+00   0.147E-03 -.121E-03 0.192E-03


 POSITION                                       TOTAL-FORCE (eV/Angst)
 -----------------------------------------------------------------------------------
      5.38371      4.57001      3.55384        -0.018363      0.107967     -0.088608
      4.78816      3.73556      4.99865        -1.214916     -0.738859      0.275235
      4.65460      5.59077      4.88246        -0.447280     -0.481953     -0.164512
      6.11870      4.71757      5.18861         0.235820      0.166370     -0.403282
      5.17127      4.65355      4.62197         1.444739      0.946474      0.381167
 -----------------------------------------------------------------------------------
    total drift:                               -0.000082      0.000945     -0.000237


--------------------------------------------------------------------------------------------------------



  FREE ENERGIE OF THE ION-ELECTRON SYSTEM (eV)
  ---------------------------------------------------
  free  energy   TOTEN  =       -23.89874657 eV

  energy  without entropy=      -23.89874657  energy(sigma->0) =      -23.89874657



--------------------------------------------------------------------------------------------------------


    POTLOK:  cpu time    1.7224: real time    1.7265


--------------------------------------------------------------------------------------------------------


     LOOP+:  cpu time   49.4245: real time   49.5468
    4ORBIT:  cpu time    0.0000: real time    0.0000

 total amount of memory used by VASP MPI-rank0   297494. kBytes
=======================================================================

   base      :      30000. kBytes
   nonlr-proj:       1255. kBytes
   fftplans  :      94700. kBytes
   grid      :     169030. kBytes
   one-center:         15. kBytes
   wavefun   :       2494. kBytes

  
  
 General timing and accounting informations for this job:
 ========================================================
  
                  Total CPU time used (sec):       51.265
                            User time (sec):       49.680
                          System time (sec):        1.585
                         Elapsed time (sec):       51.402
  
                   Maximum memory used (kb):      422624.
                   Average memory used (kb):           0.
  
                          Minor page faults:       237572
                          Major page faults:            0
                 Voluntary context switches:          140
