LAMMPS (16 Mar 2018)
clear
units 	metal
dimension	3
boundary	p	p    p
atom_style	atomic
box         tilt large
read_data   conf.lmp
  triclinic box = (0 0 0) to (2.5701 2.26985 2.09848) with tilt (1.28505 1.28505 0.756617)
  1 by 1 by 1 MPI processor grid
  reading atoms ...
  1 atoms
mass            1 1
neigh_modify    every 1 delay 0 check no
pair_style deepmd frozen_model.pb
pair_coeff
compute         mype all pe
thermo          100
thermo_style    custom step pe pxx pyy pzz pxy pxz pyz lx ly lz vol c_mype
dump            1 all custom 100 dump.relax id type xs ys zs fx fy fz
min_style       cg
minimize        1.000000e-12 1.000000e-06 5000 500000
WARNING: Using 'neigh_modify every 1 delay 0 check yes' setting during minimization (../min.cpp:168)
Neighbor list info ...
  update every 1 steps, delay 0 steps, check yes
  max neighbors/atom: 2000, page size: 100000
  master list distance cutoff = 10
  ghost atom cutoff = 10
  binsize = 5, bins = 2 1 1
  1 neighbor lists, perpetual/occasional/extra = 1 0 0
  (1) pair deepmd, perpetual
      attributes: , newton on
      pair build: full/bin/atomonly
      stencil: full/bin/3d
      bin: standard
Per MPI rank memory allocation (min/avg/max) = 5.171 | 5.171 | 5.171 Mbytes
Step PotEng Pxx Pyy Pzz Pxy Pxz Pyz Lx Ly Lz Volume c_mype 
       0   -3.7240427    -18870.96   -40677.036   -16705.816 -4.0201386e-11 -9.4002665e-11    4429.1053       2.5701     2.269851     2.098478    12.241984   -3.7240427 
       1   -3.7240427    -18870.96   -40677.036   -16705.816 8.5809955e-12 -1.1113761e-12    4429.1053       2.5701     2.269851     2.098478    12.241984   -3.7240427 
Loop time of 0.0136616 on 1 procs for 1 steps with 1 atoms

212.0% CPU use with 1 MPI tasks x no OpenMP threads

Minimization stats:
  Stopping criterion = quadratic factors are zero
  Energy initial, next-to-last, final = 
        -3.72404269631     -3.72404269631     -3.72404269631
  Force two-norm initial, final = 8.67362e-18 1.04083e-17
  Force max component initial, final = 6.93889e-18 6.93889e-18
  Final line search alpha, max atom move = 1 6.93889e-18
  Iterations, force evaluations = 1 2

MPI task timing breakdown:
Section |  min time  |  avg time  |  max time  |%varavg| %total
---------------------------------------------------------------
Pair    | 0.013514   | 0.013514   | 0.013514   |   0.0 | 98.92
Neigh   | 0          | 0          | 0          |   0.0 |  0.00
Comm    | 3.8385e-05 | 3.8385e-05 | 3.8385e-05 |   0.0 |  0.28
Output  | 0          | 0          | 0          |   0.0 |  0.00
Modify  | 0          | 0          | 0          |   0.0 |  0.00
Other   |            | 0.0001094  |            |       |  0.80

Nlocal:    1 ave 1 max 1 min
Histogram: 1 0 0 0 0 0 0 0 0 0
Nghost:    999 ave 999 max 999 min
Histogram: 1 0 0 0 0 0 0 0 0 0
Neighs:    0 ave 0 max 0 min
Histogram: 1 0 0 0 0 0 0 0 0 0

Total # of neighbors = 0
Ave neighs/atom = 0
Neighbor list builds = 0
Dangerous builds not checked
variable        N equal count(all)
variable        V equal vol
variable        E equal "c_mype"
variable        Pxx equal pxx
variable        Pyy equal pyy
variable        Pzz equal pzz
variable        Pxy equal pxy
variable        Pxz equal pxz
variable        Pyz equal pyz
variable        Epa equal ${E}/${N}
variable        Epa equal -3.72404269631092/${N}
variable        Epa equal -3.72404269631092/1
variable        Vpa equal ${V}/${N}
variable        Vpa equal 12.2419835572581/${N}
variable        Vpa equal 12.2419835572581/1
print "All done"
All done
print "Total number of atoms = ${N}"
Total number of atoms = 1
print "Final energy per atoms = ${Epa}"
Final energy per atoms = -3.72404269631092
print "Final volume per atoms = ${Vpa}"
Final volume per atoms = 12.2419835572581
print "Final Stress (xx yy zz xy xz yz) = ${Pxx} ${Pyy} ${Pzz} ${Pxy} ${Pxz} ${Pyz}"
Final Stress (xx yy zz xy xz yz) = -18870.9604587393 -40677.0358449615 -16705.8159355957 8.58099553615743e-12 -1.11137608735009e-12 4429.10525316346
Total wall time: 0:00:02
