4.835250000000000270e+00 4.791669999999999874e+00 3.775160000000000071e+00 6.209249999999999936e+00 4.135749999999999815e+00 4.790949999999999598e+00 4.754470000000000418e+00 4.443109999999999893e+00 5.603640000000000398e+00 5.658330000000000304e+00 5.766020000000000145e+00 4.853620000000000267e+00 5.301470000000000127e+00 4.765069999999999695e+00 4.742960000000000065e+00
4.292110000000000092e+00 4.156390000000000029e+00 4.973729999999999762e+00 4.963940000000000019e+00 5.784609999999999808e+00 4.987169999999999881e+00 5.160940000000000083e+00 4.943579999999999863e+00 3.481520000000000170e+00 6.017649999999999721e+00 4.301309999999999967e+00 4.822040000000000326e+00 5.072199999999999598e+00 4.754679999999999573e+00 4.553279999999999994e+00
4.796350000000000335e+00 3.594240000000000101e+00 4.471589999999999954e+00 4.395609999999999573e+00 5.301919999999999966e+00 5.125239999999999796e+00 5.067639999999999922e+00 5.018060000000000187e+00 3.446279999999999788e+00 6.066430000000000433e+00 4.586689999999999934e+00 4.979429999999999801e+00 5.057000000000000384e+00 4.687009999999999899e+00 4.503560000000000230e+00
5.302649999999999864e+00 4.007480000000000153e+00 3.808769999999999989e+00 4.119379999999999598e+00 5.049059999999999881e+00 4.722830000000000084e+00 5.591470000000000162e+00 5.704390000000000072e+00 4.263600000000000279e+00 5.521040000000000170e+00 4.419410000000000061e+00 5.557669999999999888e+00 5.157549999999999635e+00 4.739189999999999792e+00 4.580940000000000012e+00
4.280470000000000219e+00 4.307210000000000427e+00 5.075750000000000206e+00 5.288280000000000314e+00 5.809809999999999697e+00 4.908979999999999677e+00 4.773150000000000226e+00 4.733780000000000321e+00 3.531730000000000036e+00 6.047279999999999767e+00 4.306910000000000238e+00 4.748669999999999725e+00 5.088829999999999742e+00 4.769070000000000142e+00 4.564729999999999954e+00
5.786859999999999893e+00 5.359110000000000262e+00 5.447020000000000195e+00 5.550629999999999953e+00 5.270240000000000258e+00 3.718539999999999957e+00 4.100789999999999935e+00 5.059849999999999959e+00 4.808060000000000223e+00 5.382920000000000371e+00 3.756790000000000074e+00 4.508759999999999657e+00 5.166549999999999976e+00 4.851700000000000124e+00 4.648609999999999687e+00
5.169150000000000134e+00 5.786839999999999762e+00 4.983010000000000161e+00 6.203949999999999854e+00 4.538870000000000182e+00 4.547579999999999956e+00 4.729300000000000281e+00 4.764890000000000292e+00 3.589640000000000164e+00 4.655179999999999652e+00 4.101149999999999629e+00 5.252640000000000420e+00 5.153109999999999857e+00 4.791339999999999932e+00 4.558349999999999902e+00
5.863570000000000171e+00 4.664310000000000400e+00 5.059359999999999857e+00 4.991179999999999950e+00 5.456850000000000200e+00 3.721229999999999816e+00 4.130690000000000417e+00 4.442359999999999864e+00 5.128199999999999648e+00 5.029390000000000249e+00 3.642879999999999896e+00 3.891319999999999890e+00 4.972590000000000288e+00 4.609750000000000014e+00 4.423949999999999605e+00
5.492880000000000429e+00 4.446480000000000210e+00 5.386020000000000252e+00 4.986060000000000159e+00 5.632570000000000299e+00 4.075899999999999856e+00 3.919350000000000112e+00 4.440979999999999706e+00 4.575319999999999609e+00 5.471490000000000187e+00 4.023279999999999745e+00 3.657960000000000100e+00 4.992029999999999745e+00 4.588449999999999918e+00 4.439219999999999722e+00
4.428980000000000139e+00 3.853569999999999940e+00 4.260500000000000398e+00 4.376850000000000129e+00 5.485100000000000087e+00 5.025000000000000355e+00 5.584380000000000344e+00 5.321959999999999802e+00 3.742539999999999978e+00 5.881619999999999848e+00 4.424170000000000158e+00 5.171990000000000087e+00 5.052609999999999602e+00 4.732009999999999827e+00 4.528920000000000279e+00
5.287829999999999586e+00 4.317960000000000242e+00 5.438970000000000304e+00 5.154499999999999638e+00 5.691849999999999632e+00 4.403019999999999712e+00 4.012629999999999697e+00 4.175469999999999793e+00 4.283820000000000405e+00 5.570129999999999804e+00 4.081319999999999837e+00 3.704990000000000006e+00 4.985629999999999562e+00 4.617530000000000356e+00 4.433740000000000236e+00
6.045370000000000132e+00 4.869209999999999816e+00 4.480789999999999829e+00 4.651189999999999714e+00 5.200660000000000061e+00 3.566889999999999894e+00 4.424780000000000157e+00 4.922170000000000378e+00 5.347450000000000259e+00 4.680539999999999701e+00 3.532799999999999940e+00 4.230050000000000310e+00 4.989090000000000025e+00 4.582060000000000244e+00 4.437409999999999854e+00
4.799610000000000376e+00 4.700280000000000236e+00 3.755079999999999973e+00 5.959439999999999849e+00 3.857099999999999973e+00 4.792300000000000004e+00 4.451780000000000292e+00 4.647339999999999804e+00 5.385699999999999932e+00 5.792699999999999960e+00 5.684379999999999988e+00 4.893810000000000215e+00 5.298280000000000101e+00 4.748910000000000409e+00 4.722719999999999807e+00
5.383709999999999773e+00 4.570009999999999906e+00 3.553840000000000110e+00 4.788160000000000416e+00 3.735559999999999992e+00 4.998649999999999594e+00 4.654600000000000293e+00 5.590770000000000017e+00 4.882460000000000022e+00 6.118699999999999584e+00 4.717570000000000263e+00 5.188609999999999722e+00 5.171269999999999811e+00 4.653550000000000075e+00 4.621970000000000134e+00
5.240129999999999733e+00 4.713119999999999976e+00 3.543660000000000032e+00 4.906620000000000203e+00 3.687600000000000211e+00 4.997200000000000308e+00 4.350869999999999571e+00 5.285560000000000258e+00 5.003999999999999559e+00 6.222310000000000230e+00 5.060170000000000279e+00 4.982739999999999725e+00 5.220410000000000217e+00 4.669740000000000002e+00 4.657060000000000421e+00
4.970830000000000304e+00 4.766879999999999562e+00 3.616330000000000044e+00 5.455969999999999764e+00 3.636569999999999858e+00 4.943850000000000300e+00 4.308340000000000281e+00 4.942980000000000373e+00 5.206030000000000157e+00 6.064210000000000100e+00 5.462419999999999831e+00 4.896480000000000388e+00 5.262290000000000134e+00 4.708050000000000068e+00 4.689110000000000333e+00
5.321589999999999598e+00 4.496640000000000192e+00 3.549189999999999845e+00 4.404569999999999652e+00 3.920399999999999885e+00 4.839979999999999727e+00 4.796409999999999840e+00 5.659790000000000099e+00 4.651340000000000252e+00 5.984759999999999636e+00 4.518080000000000318e+00 5.298269999999999591e+00 5.180900000000000283e+00 4.631029999999999980e+00 4.621719999999999828e+00
5.399350000000000094e+00 4.331170000000000186e+00 3.568760000000000154e+00 4.120140000000000136e+00 4.194329999999999892e+00 4.711479999999999890e+00 5.142640000000000100e+00 5.702200000000000379e+00 4.538669999999999760e+00 5.759549999999999947e+00 4.287720000000000198e+00 5.424489999999999590e+00 5.154320000000000235e+00 4.607409999999999783e+00 4.599569999999999936e+00
5.224260000000000126e+00 5.081570000000000142e+00 5.679809999999999803e+00 5.590559999999999974e+00 5.642249999999999766e+00 4.061379999999999768e+00 4.120840000000000281e+00 4.714599999999999902e+00 4.276609999999999800e+00 5.513849999999999696e+00 3.778529999999999944e+00 4.512109999999999843e+00 5.152849999999999930e+00 4.828890000000000349e+00 4.604580000000000339e+00
5.920309999999999739e+00 4.649569999999999759e+00 3.854439999999999866e+00 4.251839999999999620e+00 4.881289999999999907e+00 3.674990000000000201e+00 4.993479999999999919e+00 5.342999999999999972e+00 5.250239999999999796e+00 4.657339999999999591e+00 3.632499999999999840e+00 4.887450000000000294e+00 4.992650000000000254e+00 4.588499999999999801e+00 4.438640000000000363e+00
5.467399999999999594e+00 4.523399999999999643e+00 3.576670000000000016e+00 4.478939999999999699e+00 3.905870000000000175e+00 4.944580000000000197e+00 4.621360000000000134e+00 5.573730000000000295e+00 4.804070000000000285e+00 6.131210000000000271e+00 4.617219999999999658e+00 5.127410000000000245e+00 5.177970000000000184e+00 4.640609999999999680e+00 4.623859999999999637e+00
4.795899999999999608e+00 3.712429999999999897e+00 5.032619999999999649e+00 4.770489999999999675e+00 5.576190000000000424e+00 4.984510000000000218e+00 4.489099999999999646e+00 4.568719999999999892e+00 3.522200000000000220e+00 6.112280000000000157e+00 4.548639999999999795e+00 4.377239999999999576e+00 5.019059999999999633e+00 4.647739999999999760e+00 4.466920000000000002e+00
4.859429999999999694e+00 4.965480000000000338e+00 5.641910000000000203e+00 5.724560000000000315e+00 5.628339999999999677e+00 4.234619999999999607e+00 4.185330000000000439e+00 4.699840000000000018e+00 4.083350000000000257e+00 5.848650000000000126e+00 4.004649999999999821e+00 4.387299999999999756e+00 5.118710000000000093e+00 4.803250000000000242e+00 4.601779999999999760e+00
5.159849999999999604e+00 4.694149999999999601e+00 3.546479999999999855e+00 5.332080000000000375e+00 3.637150000000000105e+00 4.985540000000000305e+00 4.421219999999999928e+00 5.325870000000000104e+00 5.108489999999999753e+00 6.175259999999999749e+00 5.116259999999999586e+00 5.088269999999999627e+00 5.205610000000000070e+00 4.681770000000000209e+00 4.654510000000000147e+00
