1.499179999999999957e+01 9.318429999999999325e+00 1.566159999999999997e+01 1.497289999999999921e+01 9.800850000000000506e+00 1.664229999999999876e+01
8.297539999999999338e+01 2.602590000000000003e+01 1.035930000000000035e+02 8.206010000000000559e+01 2.549289999999999878e+01 1.039399999999999977e+02
3.181909999999999883e+01 1.109819999999999993e+02 6.941880000000000450e+01 3.182260000000000133e+01 1.103679999999999950e+02 6.854810000000000514e+01
6.746410000000000196e+01 1.107180000000000035e+02 6.263159999999999883e+01 6.732510000000000616e+01 1.113239999999999981e+02 6.352349999999999852e+01
5.126259999999999906e+01 1.721730000000000160e+01 5.595889999999999986e+01 5.133350000000000080e+01 1.822739999999999938e+01 5.635810000000000031e+01
3.651700000000000301e+01 1.154759999999999991e+02 1.111919999999999931e+02 3.648629999999999995e+01 1.159569999999999936e+02 1.122019999999999982e+02
5.514520000000000088e+00 6.435250000000000625e+01 4.176069999999999993e+01 4.512229999999999741e+00 6.470520000000000493e+01 4.171730000000000160e+01
1.423279999999999923e+01 1.045819999999999936e+02 7.287789999999999679e+01 1.481760000000000055e+01 1.036340000000000003e+02 7.301990000000000691e+01
4.264399999999999835e+01 1.308340000000000032e+02 6.732070000000000221e+01 4.225699999999999790e+01 1.314780000000000086e+02 6.814619999999999322e+01
2.678839999999999932e+01 5.886650000000000205e+01 3.826389999999999958e+01 2.668349999999999866e+01 5.789889999999999759e+01 3.771410000000000196e+01
1.072969999999999970e+02 1.389980000000000082e+01 1.141280000000000001e+02 1.078520000000000039e+02 1.340719999999999956e+01 1.133199999999999932e+02
6.435219999999999629e+01 9.024859999999999616e+01 9.593540000000000134e+01 6.347330000000000183e+01 8.970159999999999911e+01 9.613549999999999329e+01
7.329579999999999984e+01 9.252819999999999823e+01 2.366750000000000043e+01 7.339960000000000662e+01 9.250480000000000302e+01 2.256970000000000098e+01
5.551219999999999999e+01 9.132070000000000576e+00 1.116389999999999958e+02 5.477660000000000196e+01 8.351089999999999236e+00 1.113930000000000007e+02
8.054909999999999570e+01 6.910770000000000302e+00 1.219519999999999982e+02 7.957559999999999434e+01 7.469339999999999868e+00 1.218900000000000006e+02
7.945260000000000389e+01 1.128020000000000067e+02 4.107560000000000144e+01 7.959229999999999450e+01 1.133820000000000050e+02 4.200439999999999685e+01
7.903369999999999607e+01 6.840749999999999886e+00 1.216899999999999977e+02 7.982829999999999870e+01 7.611979999999999968e+00 1.215190000000000055e+02
6.128370000000000317e+01 2.928600000000000136e+01 9.852200000000000557e+01 6.225849999999999795e+01 2.961360000000000170e+01 9.877830000000000155e+01
1.137900000000000063e+02 3.227700000000000102e+01 5.077580000000000204e+00 1.145619999999999976e+02 3.185770000000000124e+01 4.395669999999999966e+00
6.391310000000000002e+01 5.559290000000000020e+01 3.731000000000000227e+01 6.415940000000000509e+01 5.487279999999999802e+01 3.652929999999999922e+01
2.495820000000000149e+01 2.064639999999999986e+01 9.312730000000000530e+01 2.574690000000000012e+01 2.046770000000000067e+01 9.381950000000000500e+01
3.557729999999999837e+00 1.245400000000000063e+02 6.484390000000000498e+01 2.871830000000000105e+00 1.248840000000000003e+02 6.413569999999999993e+01
1.126680000000000064e+02 4.492390000000000327e+01 6.509799999999999898e+01 1.123359999999999985e+02 4.479480000000000217e+01 6.615560000000000684e+01
5.766929999999999978e+01 6.839889999999999759e+01 4.798700000000000188e+01 5.850110000000000099e+01 6.772289999999999566e+01 4.782289999999999708e+01
1.198400000000000034e+02 7.684399999999999409e+01 5.198349999999999937e+01 1.193310000000000031e+02 7.592079999999999984e+01 5.164920000000000044e+01
7.449599999999999511e+01 4.731799999999999784e+01 8.409199999999999875e+01 7.423969999999999914e+01 4.640290000000000248e+01 8.358459999999999468e+01
2.323450000000000060e+01 4.705490000000000350e+01 3.550249999999999773e+01 2.307550000000000168e+01 4.627980000000000160e+01 3.629509999999999792e+01
1.046599999999999966e+02 5.832330000000000325e+01 1.215990000000000038e+02 1.050799999999999983e+02 5.752490000000000236e+01 1.222259999999999991e+02
8.497239999999999327e+01 1.078229999999999933e+02 4.458660000000000068e+00 8.527389999999999759e+01 1.084380000000000024e+02 5.343090000000000117e+00
4.146849999999999881e+01 1.168629999999999995e+02 6.176700000000000301e+01 4.039039999999999964e+01 1.167150000000000034e+02 6.150959999999999894e+01
9.772620000000000573e+01 7.696989999999999554e+01 1.229669999999999987e+02 9.864010000000000389e+01 7.694370000000000687e+01 1.223419999999999987e+02
4.281289999999999907e+01 4.382189999999999941e+01 3.780149999999999721e+01 4.340809999999999746e+01 4.386630000000000251e+01 3.874170000000000158e+01
1.013850000000000051e+02 6.209779999999999944e+01 1.257650000000000006e+02 1.020040000000000049e+02 6.209490000000000265e+01 1.266069999999999993e+02
6.716870000000000118e+01 4.761099999999999710e+01 1.076629999999999967e+02 6.724240000000000350e+01 4.813040000000000163e+01 1.086370000000000005e+02
1.226340000000000003e+02 4.947449999999999903e+01 1.165090000000000003e+02 1.223029999999999973e+02 5.040370000000000061e+01 1.160109999999999957e+02
5.548740000000000094e+01 5.868059999999999832e+00 1.230570000000000022e+02 5.443639999999999901e+01 6.177559999999999718e+00 1.232609999999999957e+02
1.198719999999999999e+02 2.201930000000000121e+01 5.043130000000000024e+01 1.207240000000000038e+02 2.240469999999999828e+01 5.098259999999999792e+01
2.932870000000000132e+01 1.760979999999999990e+01 9.430259999999999820e+01 3.016639999999999944e+01 1.700750000000000028e+01 9.397700000000000387e+01
1.092909999999999968e+02 7.865079999999999849e+00 1.231820000000000022e+02 1.097920000000000016e+02 7.791140000000000398e+00 1.222189999999999941e+02
1.256750000000000078e+01 1.341559999999999953e+01 1.858520000000000039e+01 1.154519999999999946e+01 1.306540000000000035e+01 1.841850000000000165e+01
1.237279999999999944e+02 1.260750000000000028e+02 6.921670000000000300e+01 1.242740000000000009e+02 1.269939999999999998e+02 6.931770000000000209e+01
5.665250000000000341e+01 1.029420000000000002e+01 2.710369999999999990e+01 5.733619999999999806e+01 1.042740000000000045e+01 2.622869999999999990e+01
6.051030000000000086e+01 1.291490000000000009e+02 3.280749999999999744e+01 6.068370000000000175e+01 1.301889999999999930e+02 3.319839999999999947e+01
1.525130000000000052e+01 1.299679999999999893e+02 9.938739999999999952e+01 1.474440000000000062e+01 1.294749999999999943e+02 9.852419999999999334e+01
1.170660000000000025e+02 4.791240000000000165e+00 2.691319999999999979e+01 1.175060000000000002e+02 4.250009999999999621e+00 2.773160000000000025e+01
1.605610000000000070e+01 4.803419999999999845e+01 3.211070000000000135e+01 1.576839999999999975e+01 4.835249999999999915e+01 3.110500000000000043e+01
5.040160000000000196e+01 1.398100000000000023e+02 1.124729999999999990e+02 5.029279999999999973e+01 1.401838750000000005e+02 1.114899999999999949e+02
8.063620000000000232e+01 1.223470000000000013e+01 6.656060000000000088e+00 7.978499999999999659e+01 1.281809999999999938e+01 6.268200000000000216e+00
7.193979999999999819e+00 1.113379999999999939e+02 1.195030000000000001e+02 7.774339999999999584e+00 1.118520000000000039e+02 1.187810000000000059e+02
4.431960000000000122e+01 3.758939999999999770e+01 2.271440000000000126e+01 4.525889999999999702e+01 3.736440000000000339e+01 2.327639999999999887e+01
9.721059999999999590e+00 6.089350000000000307e+01 7.632219999999999516e+01 9.194359999999999644e+00 6.047590000000000288e+01 7.717690000000000339e+01
1.209820000000000029e+01 6.674190000000000111e+01 5.743990000000000151e+01 1.285829999999999984e+01 6.597039999999999793e+01 5.761209999999999809e+01
4.648319999999999652e+01 7.140290000000000248e+01 1.300809999999999889e+02 4.703739999999999810e+01 7.156399999999999295e+01 1.291260000000000048e+02
4.861269999999999669e+01 1.180819999999999936e+02 -8.659999999999999920e-01 4.906309999999999860e+01 1.185849999999999937e+02 7.217999999999999590e-03
