-2.980291052784515159e+03
-2.980297102610385082e+03
-2.980165851318811747e+03
-2.980276229136954953e+03
-2.980279789610788157e+03
-2.980289426006211215e+03
-2.980151028215479528e+03
-2.980280831181019948e+03
-2.980294650265833752e+03
-2.980291895766049947e+03
-2.980297723438162393e+03
-2.980073470893840295e+03
-2.980302858770974581e+03
-2.980301563073607213e+03
-2.980277695340868831e+03
-2.980303168545395692e+03
-2.980286576103307198e+03
-2.980122352230791421e+03
-2.980300018446478134e+03
-2.980284686653491462e+03
-2.980158983273769081e+03
-2.979964355847286697e+03
-2.980295038327413295e+03
-2.980266762649428529e+03
-2.980303351678025138e+03
-2.980237172253317112e+03
-2.980287690028614179e+03
-2.980299633867956800e+03
-2.980290363928272200e+03
-2.980291124649786070e+03
-2.980303062829159899e+03
-2.980298303666550964e+03
-2.979974471217530208e+03
-2.980303319895125696e+03
-2.980303346970455550e+03
-2.980297263783425478e+03
-2.980270843214486831e+03
-2.980257582616164200e+03
-2.980278672909919806e+03
-2.980291660360347123e+03
-2.980218638033917159e+03
-2.980290821514943218e+03
-2.980276574449446798e+03
-2.980295247229225424e+03
-2.980227228532497975e+03
-2.980291653611923266e+03
-2.980100565543239099e+03
-2.980302628018419455e+03
-2.980118583725910412e+03
-2.980292525410315648e+03
-2.980276606177922986e+03
-2.980297136488560682e+03
-2.980295242249541843e+03
-2.980303143755822930e+03
