3.485475151060083571e-02 -8.896497441293944597e-01 -1.808574688337870828e+00 -3.485475151060083571e-02 8.896497441293944597e-01 1.808574688337870828e+00
-1.121716660474906258e+00 -6.531647980125190323e-01 4.252602923409457558e-01 1.121716660474906258e+00 6.531647980125190323e-01 -4.252602923409457558e-01
-2.364263249599524511e-02 4.148651825610242483e+00 5.882981790263769994e+00 2.364263249599524511e-02 -4.148651825610242483e+00 -5.882981790263769994e+00
3.880212538276701095e-01 -1.691588302121677767e+00 -2.489672930422812680e+00 -3.880212538276701095e-01 1.691588302121677767e+00 2.489672930422812680e+00
-1.837132550575658330e-01 -2.617547785160915463e+00 -1.034470072717443623e+00 1.837132550575658330e-01 2.617547785160915463e+00 1.034470072717443623e+00
-5.530170820121232261e-02 8.663161582589319343e-01 1.819130713193546134e+00 5.530170820121232261e-02 -8.663161582589319343e-01 -1.819130713193546134e+00
7.175641755247441189e+00 -2.525068282128791530e+00 3.107015419303095771e-01 -7.175641755247441189e+00 2.525068282128791530e+00 -3.107015419303095771e-01
1.322684795962423276e+00 -2.144204568717286374e+00 3.212118525679982795e-01 -1.322684795962423276e+00 2.144204568717286374e+00 -3.212118525679982795e-01
-5.563963860204649281e-01 9.259102721206631248e-01 1.186864409046148205e+00 5.563963860204649281e-01 -9.259102721206631248e-01 -1.186864409046148205e+00
-1.721177331078567463e-01 -1.587512094432292908e+00 -9.020455477152374835e-01 1.721177331078567463e-01 1.587512094432292908e+00 9.020455477152374835e-01
-6.838891233751515086e-01 6.070352439870589922e-01 9.956728427155002725e-01 6.838891233751515086e-01 -6.070352439870589922e-01 -9.956728427155002725e-01
7.967781735437975854e+00 4.958950943287299573e+00 -1.814038848649973001e+00 -7.967781735437975854e+00 -4.958950943287299573e+00 1.814038848649973001e+00
-3.769813473170427476e-02 8.504695739909549912e-03 3.986624336270860880e-01 3.769813473170427476e-02 -8.504695739909549912e-03 -3.986624336270860880e-01
5.064597992293951023e-01 5.377301755265585514e-01 1.694039849188611335e-01 -5.064597992293951023e-01 -5.377301755265585514e-01 -1.694039849188611335e-01
-2.340861220957250577e+00 1.343145842299523274e+00 -1.490371438093777701e-01 2.340861220957250577e+00 -1.343145842299523274e+00 1.490371438093777701e-01
-3.167779333777846068e-02 -1.316011034357075782e-01 -2.106999160236140423e-01 3.167779333777846068e-02 1.316011034357075782e-01 2.106999160236140423e-01
1.563640942268432754e+00 1.517681903818724143e+00 -3.365408223047585135e-01 -1.563640942268432754e+00 -1.517681903818724143e+00 3.365408223047585135e-01
-7.699374226942135024e+00 -2.587490712545855942e+00 -2.024398761963433380e+00 7.699374226942135024e+00 2.587490712545855942e+00 2.024398761963433380e+00
6.974154925365291247e-01 -3.787911984039395441e-01 -6.160558059078909965e-01 -6.974154925365291247e-01 3.787911984039395441e-01 6.160558059078909965e-01
-5.647080433190683202e-01 1.650904190775758007e+00 1.789844663058226759e+00 5.647080433190683202e-01 -1.650904190775758007e+00 -1.789844663058226759e+00
-5.477652177055973404e+00 1.241092733010859650e+00 -4.807352826251397815e+00 5.477652177055973404e+00 -1.241092733010859650e+00 4.807352826251397815e+00
7.814406008951484850e+00 -3.919149482035977794e+00 8.068496019777825268e+00 -7.814406008951484850e+00 3.919149482035977794e+00 -8.068496019777825268e+00
-4.669297533438466763e-01 -1.815566649696761792e-01 1.487534791163513503e+00 4.669297533438466763e-01 1.815566649696761792e-01 -1.487534791163513503e+00
-2.722462223972231588e+00 2.212501096168373316e+00 5.371497232288858781e-01 2.722462223972231588e+00 -2.212501096168373316e+00 -5.371497232288858781e-01
-3.267712979711338145e-02 -5.929031228708102341e-02 -2.147997460414340087e-02 3.267712979711338145e-02 5.929031228708102341e-02 2.147997460414340087e-02
1.154881682848235114e+00 4.123217134062697298e+00 2.286205322501473791e+00 -1.154881682848235114e+00 -4.123217134062697298e+00 -2.286205322501473791e+00
-3.028882673096867650e-01 -1.476310073742376439e+00 1.509623603046576612e+00 3.028882673096867650e-01 1.476310073742376439e+00 -1.509623603046576612e+00
-4.187820374361432285e-01 7.961130033899574965e-01 -6.252172642936082436e-01 4.187820374361432285e-01 -7.961130033899574965e-01 6.252172642936082436e-01
5.252531250741028224e-01 1.071478431836020428e+00 1.540820240098978999e+00 -5.252531250741028224e-01 -1.071478431836020428e+00 -1.540820240098978999e+00
-1.824857537426316956e+00 -2.505058413011728713e-01 -4.357049369984671849e-01 1.824857537426316956e+00 2.505058413011728713e-01 4.357049369984671849e-01
2.533073155372831398e-01 -7.269537679128201119e-03 -1.732181139297826467e-01 -2.533073155372831398e-01 7.269537679128201119e-03 1.732181139297826467e-01
6.577554002423331436e-01 4.904852768575370531e-02 1.039059183707300882e+00 -6.577554002423331436e-01 -4.904852768575370531e-02 -1.039059183707300882e+00
-6.926284065868879125e+00 3.244475347418786237e-02 -9.421536136346672308e+00 6.926284065868879125e+00 -3.244475347418786237e-02 9.421536136346672308e+00
8.212309864239160373e-03 5.792315377908794499e-02 1.085963102646886891e-01 -8.212309864239160373e-03 -5.792315377908794499e-02 -1.085963102646886891e-01
2.417927319217818075e-02 -6.792114635851000115e-02 3.640445835813486963e-02 -2.417927319217818075e-02 6.792114635851000115e-02 -3.640445835813486963e-02
-1.271842769407230289e+00 3.745295431397715480e-01 2.468830023812633168e-01 1.271842769407230289e+00 -3.745295431397715480e-01 -2.468830023812633168e-01
-2.618222288420002375e+00 -1.184333517729098340e+00 -1.694216998211067082e+00 2.618222288420002375e+00 1.184333517729098340e+00 1.694216998211067082e+00
-3.091235992255243037e+00 2.222548968153247539e+00 1.201580067784118411e+00 3.091235992255243037e+00 -2.222548968153247539e+00 -1.201580067784118411e+00
-1.330427982305075973e+00 1.963525421329093690e-01 2.557232425380761232e+00 1.330427982305075973e+00 -1.963525421329093690e-01 -2.557232425380761232e+00
1.836364356309629686e+00 6.290829696382085334e-01 2.994346069917742659e-01 -1.836364356309629686e+00 -6.290829696382085334e-01 -2.994346069917742659e-01
-2.816628113707241532e+00 -4.740824909389091957e+00 -5.210141469416920135e-01 2.816628113707241532e+00 4.740824909389091957e+00 5.210141469416920135e-01
1.170852862785707327e+00 2.280714731246689109e-01 -1.498460283574006180e+00 -1.170852862785707327e+00 -2.280714731246689109e-01 1.498460283574006180e+00
4.254053539932964867e-01 2.551393912417431853e+00 9.589927106536249024e-01 -4.254053539932964867e-01 -2.551393912417431853e+00 -9.589927106536249024e-01
-7.043007016833392475e-01 -6.849771629008830631e-01 -1.199368250395759228e+00 7.043007016833392475e-01 6.849771629008830631e-01 1.199368250395759228e+00
-2.140210051093657917e+00 2.632614656619749027e+00 -3.980816882236287046e+00 2.140210051093657917e+00 -2.632614656619749027e+00 3.980816882236287046e+00
5.169766404696533035e-01 -5.719274959044745588e-01 1.807079745992199227e+00 -5.169766404696533035e-01 5.719274959044745588e-01 -1.807079745992199227e+00
9.173540000470747913e-01 -3.152211817070063482e+00 8.287941543927475507e+00 -9.173540000470747913e-01 3.152211817070063482e+00 -8.287941543927475507e+00
3.733578913323234438e-01 -2.558884462142573257e-01 1.701067188929926144e-01 -3.733578913323234438e-01 2.558884462142573257e-01 -1.701067188929926144e-01
-4.638350859056067144e+00 -4.108053126318401915e+00 5.770426803556484074e+00 4.638350859056067144e+00 4.108053126318401915e+00 -5.770426803556484074e+00
1.499888274387823683e+00 -3.592688619086198409e-01 8.973984840553345110e-01 -1.499888274387823683e+00 3.592688619086198409e-01 -8.973984840553345110e-01
1.459363108652473429e+00 1.157079821966645605e+00 -2.368174309207638384e+00 -1.459363108652473429e+00 -1.157079821966645605e+00 2.368174309207638384e+00
-9.854141402539733363e-01 1.000202766905692320e+00 -2.232148645397998010e-01 9.854141402539733363e-01 -1.000202766905692320e+00 2.232148645397998010e-01
7.701894422469148793e-01 2.239133819043982454e-01 -1.327210246432744878e+00 -7.701894422469148793e-01 -2.239133819043982454e-01 1.327210246432744878e+00
-1.082072509021627937e-01 -1.208258148843133761e-01 -2.097520530538229122e-01 1.082072509021627937e-01 1.208258148843133761e-01 2.097520530538229122e-01
