7.993399999999999750e+01 6.627580000000000382e+01 3.933930000000000149e+01 7.958920000000000528e+01 6.554449999999999932e+01 3.859009999999999962e+01
6.140930000000000177e+01 3.787619999999999720e+01 6.573850000000000193e+00 6.070680000000000121e+01 3.706389999999999674e+01 6.333870000000000111e+00
2.300809999999999889e+01 1.911560000000000059e+01 5.183389999999999986e+01 2.386499999999999844e+01 1.896989999999999910e+01 5.114189999999999969e+01
6.680110000000000525e+01 9.184109999999999729e+01 1.563700000000000045e+01 6.666469999999999629e+01 9.185479999999999734e+01 1.673930000000000007e+01
7.855240000000000578e+01 1.015480000000000018e+02 7.003409999999999513e+01 7.836709999999999354e+01 1.004620000000000033e+02 7.004569999999999652e+01
1.557510000000000083e+01 1.036380000000000052e+02 7.157980000000000587e+01 1.503979999999999961e+01 1.045879999999999939e+02 7.141049999999999898e+01
8.245619999999999550e+01 1.172399999999999949e+02 5.647549999999999848e+00 8.176479999999999393e+01 1.180600000000000023e+02 5.398439999999999905e+00
9.455599999999999739e+01 1.579930000000000057e+01 2.401839999999999975e+01 9.401890000000000214e+01 1.569120000000000026e+01 2.305870000000000175e+01
3.432090000000000174e+01 1.021779999999999973e+02 5.321900000000000119e+01 3.432780000000000342e+01 1.013750000000000000e+02 5.397879999999999967e+01
8.282999999999999829e+01 1.085799999999999983e+02 7.437850000000000250e+01 8.258339999999999748e+01 1.075019999999999953e+02 7.445900000000000318e+01
1.079110000000000014e+02 3.699099999999999966e+01 7.842149999999999466e+01 1.082870000000000061e+02 3.711569999999999681e+01 7.738909999999999911e+01
1.138509999999999991e+02 1.093440000000000012e+01 3.566440000000000055e+01 1.139240000000000066e+02 9.839470000000000383e+00 3.553770000000000095e+01
7.836499999999999488e+01 1.176530000000000058e+02 1.381279999999999859e+02 7.812220000000000653e+01 1.177530000000000001e+02 1.392040000000000077e+02
4.980550000000000033e+00 7.253430000000000177e+01 8.517099999999999227e+00 5.707399999999999807e+00 7.329779999999999518e+01 8.182669999999999888e+00
3.441190000000000282e+01 4.749949999999999761e+01 2.589679999999999760e-01 3.348980000000000246e+01 4.773199999999999932e+01 8.311610000000000387e-01
2.340599999999999881e+01 7.575209999999999866e+01 1.261500000000000057e+02 2.428839999999999932e+01 7.575520000000000209e+01 1.268229999999999933e+02
4.962230000000000274e+01 1.199330000000000069e+02 1.643720000000000070e+00 4.904549999999999699e+01 1.197319999999999993e+02 7.173209999999999864e-01
8.808979999999999677e+01 6.296059999999999945e+01 3.727150000000000318e+01 8.782810000000000628e+01 6.216810000000000258e+01 3.799380000000000024e+01
1.250559999999999974e+02 1.304259999999999877e+02 1.243859999999999957e+02 1.252699999999999960e+02 1.298439999999999941e+02 1.252969999999999970e+02
3.786010000000000275e+01 1.004470000000000027e+02 7.382609999999999673e+01 3.809270000000000067e+01 1.013670000000000044e+02 7.325069999999999482e+01
4.752080000000000126e+01 7.499460000000000548e+01 1.005000000000000000e+02 4.808520000000000039e+01 7.446739999999999782e+01 9.970860000000000412e+01
9.897220000000000084e+01 1.235400000000000063e+02 4.052700000000000102e+01 9.786730000000000018e+01 1.235490000000000066e+02 4.063689999999999714e+01
9.298770000000000380e+01 2.920299999999999940e+01 3.402179999999999893e+01 9.345730000000000359e+01 2.857489999999999952e+01 3.324470000000000169e+01
5.958509999999999707e+01 1.258539999999999992e+02 2.685999999999999943e+01 5.950030000000000285e+01 1.252609999999999957e+02 2.778340000000000032e+01
1.157469999999999999e+02 6.333559999999999945e+01 2.107900000000000063e+01 1.162009999999999934e+02 6.286500000000000199e+01 2.197670000000000101e+01
8.211950000000000216e+01 1.245660000000000025e+02 3.398389999999999844e+01 8.309709999999999752e+01 1.247740000000000009e+02 3.446750000000000114e+01
2.744470000000000098e+01 1.298549999999999898e+02 8.119079999999999586e+01 2.801030000000000086e+01 1.294219999999999970e+02 8.034170000000000300e+01
5.105539999999999878e+01 1.251419999999999959e+02 6.863120000000000331e+00 5.144919999999999760e+01 1.257609999999999957e+02 7.693270000000000053e+00
8.524869999999999948e+01 1.398129999999999882e+02 1.315219999999999914e+02 8.600329999999999586e+01 1.400020000000000095e+02 1.307390000000000043e+02
4.182469999999999999e+01 9.680769999999999698e+01 8.434109999999999729e+01 4.164330000000000354e+01 9.789079999999999870e+01 8.445560000000000400e+01
1.919569999999999865e+01 1.045160000000000053e+02 4.007789999999999964e+01 1.984209999999999852e+01 1.036580000000000013e+02 3.981479999999999819e+01
7.509279999999999688e+01 3.165869999999999962e+01 1.058940000000000055e+02 7.504120000000000346e+01 3.086299999999999955e+01 1.051320000000000050e+02
1.246500000000000057e+02 1.151989999999999981e+02 9.352809999999999491e+01 1.241509999999999962e+02 1.153439999999999941e+02 9.450289999999999679e+01
7.855559999999999832e+01 1.027950000000000017e+02 3.252920000000000300e+01 7.853530000000000655e+01 1.028550000000000040e+02 3.142360000000000042e+01
1.248760000000000048e+02 1.867210000000000036e+01 9.118420000000000414e+01 1.240529999999999973e+02 1.898920000000000030e+01 9.051390000000000668e+01
7.521030000000000371e+01 1.194740000000000038e+02 1.363859999999999957e+02 7.547239999999999327e+01 1.192549999999999955e+02 1.353340000000000032e+02
7.108509999999999707e+01 8.525169999999999249e+00 3.159469999999999956e+01 7.028919999999999391e+01 7.753350000000000186e+00 3.163269999999999982e+01
9.009780000000000655e+01 9.435429999999999495e+01 6.187369999999999948e+01 8.935429999999999495e+01 9.368500000000000227e+01 6.139900000000000091e+01
4.868849999999999767e+01 2.415070000000000050e+01 7.994480000000000075e+01 4.813689999999999714e+01 2.371640000000000015e+01 8.079999999999999716e+01
8.088060000000000116e+01 1.143930000000000007e+02 1.350200000000000102e+02 8.041190000000000282e+01 1.135109999999999957e+02 1.354970000000000141e+02
4.557909999999999684e+01 1.265570000000000022e+02 1.889150000000000063e+01 4.515409999999999968e+01 1.273059999999999974e+02 1.819800000000000040e+01
1.283669999999999902e+02 3.450900000000000034e+01 1.661499999999999844e+01 1.291500000000000057e+02 3.388510000000000133e+01 1.613739999999999952e+01
1.079620000000000033e+02 3.716060000000000230e+01 7.827039999999999509e+01 1.083449999999999989e+02 3.714670000000000272e+01 7.722880000000000678e+01
