-2.980302549404724232e+03
-2.980301341899459658e+03
-2.980301026029687819e+03
-2.980301216727083101e+03
-2.980302269916576279e+03
-2.980303055400451740e+03
-2.980301871324190870e+03
-2.980303354671277248e+03
-2.980303367623897429e+03
-2.980302541567844855e+03
-2.980303362317677056e+03
-2.980303312901799472e+03
-2.980303034093936276e+03
-2.980303353691667326e+03
-2.980301921257084359e+03
-2.980301970264790725e+03
-2.980302042946403617e+03
-2.980303130204552417e+03
-2.980302418463533741e+03
-2.980301963353098472e+03
-2.980303361065953140e+03
-2.980301530147829908e+03
-2.980303204056254799e+03
-2.980301547944076447e+03
-2.980301363859048251e+03
-2.980301573604413534e+03
-2.980302754823479518e+03
-2.980302931262107450e+03
-2.980303124762275274e+03
-2.980303224464794312e+03
-2.980303348412658579e+03
-2.980302851015729630e+03
-2.980303312847376674e+03
-2.980303084190098161e+03
-2.980302963752502365e+03
-2.980303344140470927e+03
-2.980302237752717701e+03
-2.980303119619323297e+03
-2.980303296711024814e+03
-2.980303224845753903e+03
-2.980303365147661225e+03
-2.980302281454204149e+03
-2.980301897392698720e+03
