1.590104537964111553e-01 3.373121533169033959e-01 3.455774279106432201e-01 -1.590104537964111553e-01 -3.373121533169033959e-01 -3.455774279106432201e-01
5.130252659606373555e-01 5.932146377555816974e-01 1.752503654585145232e-01 -5.130252659606373555e-01 -5.932146377555816974e-01 -1.752503654585145232e-01
6.495518835516324030e-01 -1.104158801223384945e-01 -5.245330104411644045e-01 -6.495518835516324030e-01 1.104158801223384945e-01 5.245330104411644045e-01
-9.919579068727406301e-02 9.953821023459891865e-03 8.014873293501783014e-01 9.919579068727406301e-02 -9.953821023459891865e-03 -8.014873293501783014e-01
9.912873631128493734e-02 5.810024623726965931e-01 -6.218059243372287340e-03 -9.912873631128493734e-02 -5.810024623726965931e-01 6.218059243372287340e-03
1.518347613904272864e-01 -2.694739507532327716e-01 4.801093320821639421e-02 -1.518347613904272864e-01 2.694739507532327716e-01 -4.801093320821639421e-02
4.329745280596092316e-01 -5.134851335100781844e-01 1.559814369117182020e-01 -4.329745280596092316e-01 5.134851335100781844e-01 -1.559814369117182020e-01
3.209662607737313877e-02 6.447915884991464036e-03 5.736363026287803757e-02 -3.209662607737313877e-02 -6.447915884991464036e-03 -5.736363026287803757e-02
8.484641133593782874e-06 -1.428299346222429694e-03 1.397548949871586744e-03 -8.484641133593782874e-06 1.428299346222429694e-03 -1.397548949871586744e-03
-1.119432697925877851e-01 -4.892470334727070935e-01 3.653692160395387994e-02 1.119432697925877851e-01 4.892470334727070935e-01 -3.653692160395387994e-02
1.555851784597456211e-02 5.145600604086033106e-03 -4.271507732296454113e-02 -1.555851784597456211e-02 -5.145600604086033106e-03 4.271507732296454113e-02
-8.717120300654253306e-03 1.308360973378622782e-01 1.514302754076584864e-02 8.717120300654253306e-03 -1.308360973378622782e-01 -1.514302754076584864e-02
-7.039310798623193977e-02 2.898985902665595152e-02 3.118492310543137247e-01 7.039310798623193977e-02 -2.898985902665595152e-02 -3.118492310543137247e-01
4.441452523098963351e-02 4.663842680520578765e-02 -2.045924656473833286e-02 -4.441452523098963351e-02 -4.663842680520578765e-02 2.045924656473833286e-02
-5.514821847200224170e-01 1.390455275663227686e-01 3.421884565536159606e-01 5.514821847200224170e-01 -1.390455275663227686e-01 -3.421884565536159606e-01
5.190418535436374103e-01 1.827231745703766655e-03 3.958731464209677142e-01 -5.190418535436374103e-01 -1.827231745703766655e-03 -3.958731464209677142e-01
-3.303270310929867781e-01 -1.151305638009728904e-01 -5.306030255522723449e-01 3.303270310929867781e-01 1.151305638009728904e-01 5.306030255522723449e-01
6.489017543525291143e-02 1.964658763696271737e-01 -1.790505076670824980e-01 -6.489017543525291143e-02 -1.964658763696271737e-01 1.790505076670824980e-01
-1.063962685297815541e-01 2.894060697042712405e-01 -4.529521555403642763e-01 1.063962685297815541e-01 -2.894060697042712405e-01 4.529521555403642763e-01
1.370994080006137372e-01 5.422862735490959762e-01 -3.391385108874601095e-01 -1.370994080006137372e-01 -5.422862735490959762e-01 3.391385108874601095e-01
2.429101334480423743e-02 -2.267517771849564615e-02 -3.403575224190538706e-02 -2.429101334480423743e-02 2.267517771849564615e-02 3.403575224190538706e-02
-7.435723002577515617e-01 6.055668354282050039e-03 7.395660584027385909e-02 7.435723002577515617e-01 -6.055668354282050039e-03 -7.395660584027385909e-02
-9.645535444525822621e-02 1.290389989236996604e-01 1.596181597898463922e-01 9.645535444525822621e-02 -1.290389989236996604e-01 -1.596181597898463922e-01
5.865910640880912102e-02 4.100874400010435794e-01 -6.385766145798227322e-01 -5.865910640880912102e-02 -4.100874400010435794e-01 6.385766145798227322e-01
3.188024715963950206e-01 -3.304685446226816592e-01 6.303588539764310994e-01 -3.188024715963950206e-01 3.304685446226816592e-01 -6.303588539764310994e-01
6.503164268508704327e-01 1.383427421701238225e-01 3.217076641426050432e-01 -6.503164268508704327e-01 -1.383427421701238225e-01 -3.217076641426050432e-01
2.213625902472350637e-01 -1.694761300795304404e-01 -3.323118200534380118e-01 -2.213625902472350637e-01 1.694761300795304404e-01 3.323118200534380118e-01
1.303313897455821435e-01 2.048588833789781738e-01 2.747352510091405353e-01 -1.303313897455821435e-01 -2.048588833789781738e-01 -2.747352510091405353e-01
-1.884812634201732118e-01 -4.720756624803375961e-02 1.956079505958521758e-01 1.884812634201732118e-01 4.720756624803375961e-02 -1.956079505958521758e-01
3.489352374947798235e-02 -2.082327880702348755e-01 -2.198586490397549942e-02 -3.489352374947798235e-02 2.082327880702348755e-01 2.198586490397549942e-02
4.489604147083794961e-02 -5.959395959552873240e-02 -1.829545738740201086e-02 -4.489604147083794961e-02 5.959395959552873240e-02 1.829545738740201086e-02
1.890707145796543392e-02 2.911114311500561103e-01 2.787626273338863481e-01 -1.890707145796543392e-02 -2.911114311500561103e-01 -2.787626273338863481e-01
5.938683150773408498e-02 -1.724655005501991509e-02 -1.160162574911851457e-01 -5.938683150773408498e-02 1.724655005501991509e-02 1.160162574911851457e-01
-5.424925274617435275e-03 1.602923545165285332e-02 -2.953339027988071130e-01 5.424925274617435275e-03 -1.602923545165285332e-02 2.953339027988071130e-01
-2.619065764592816703e-01 1.009014092433963283e-01 -2.132751845848958883e-01 2.619065764592816703e-01 -1.009014092433963283e-01 2.132751845848958883e-01
2.058831595410390986e-02 -1.720710932926557482e-02 -8.256244878690932598e-02 -2.058831595410390986e-02 1.720710932926557482e-02 8.256244878690932598e-02
-4.214066711822023747e-01 -4.086822805851855755e-01 2.009497263873603889e-02 4.214066711822023747e-01 4.086822805851855755e-01 -2.009497263873603889e-02
-1.861235616263836601e-01 -1.675548473724124410e-01 -1.188390718852980615e-01 1.861235616263836601e-01 1.675548473724124410e-01 1.188390718852980615e-01
-7.409529115625750062e-02 -5.834512326479867478e-02 1.148804982868355251e-01 7.409529115625750062e-02 5.834512326479867478e-02 -1.148804982868355251e-01
-8.909572530391150769e-02 -1.676771804709386304e-01 9.067731383328085648e-02 8.909572530391150769e-02 1.676771804709386304e-01 -9.067731383328085648e-02
-1.198226731919852309e-02 2.112639646817618400e-02 -1.959196197468261735e-02 1.198226731919852309e-02 -2.112639646817618400e-02 1.959196197468261735e-02
4.066798024335224748e-01 -3.240191374977333116e-01 -2.480583565775696941e-01 -4.066798024335224748e-01 3.240191374977333116e-01 2.480583565775696941e-01
2.310018624839422774e-01 -8.389201776357721810e-03 -6.281918252088437571e-01 -2.310018624839422774e-01 8.389201776357721810e-03 6.281918252088437571e-01
