    5    5 1000    1
  0.2000000E+03  0.1000000E-08  0.1000000E-08  0.1000000E-08  0.5000000E-15
  1.000000000000000E-004
  CAR 
 unknown system                          
      8      1      8
 
  0.0000000E+00  0.0000000E+00  0.0000000E+00  0.1000000E+01
    1      -16.837104   1.000000
    2       -9.397897   1.000000
    3       -9.273269   1.000000
    4       -9.073606   1.000000
    5       -0.540976   0.000000
    6        1.003719   0.000000
    7        1.031783   0.000000
    8        1.043536   0.000000
