       N       E                     dE             d eps       ncg     rms          rms(c)
DAV:   1     0.553226117370E+02    0.55323E+02   -0.16214E+03    16   0.406E+02
DAV:   2    -0.970076679243E+01   -0.65023E+02   -0.65023E+02    24   0.941E+01
DAV:   3    -0.265251670851E+02   -0.16824E+02   -0.16824E+02    16   0.730E+01
DAV:   4    -0.275365249110E+02   -0.10114E+01   -0.10114E+01    16   0.225E+01
DAV:   5    -0.275684496440E+02   -0.31925E-01   -0.31925E-01    32   0.368E+00    0.871E+00
RMM:   6    -0.246784591643E+02    0.28900E+01   -0.50486E+00    16   0.139E+01    0.428E+00
RMM:   7    -0.241836464891E+02    0.49481E+00   -0.10790E+00    16   0.610E+00    0.226E+00
RMM:   8    -0.240371060394E+02    0.14654E+00   -0.16680E-01    16   0.291E+00    0.228E-01
RMM:   9    -0.240309574930E+02    0.61485E-02   -0.11772E-02    16   0.732E-01    0.196E-01
RMM:  10    -0.240249650617E+02    0.59924E-02   -0.22001E-02    16   0.809E-01    0.259E-01
RMM:  11    -0.240262921211E+02   -0.13271E-02   -0.10288E-02    16   0.631E-01    0.126E-01
RMM:  12    -0.240351499941E+02   -0.88579E-02   -0.20704E-03    16   0.274E-01    0.112E-01
RMM:  13    -0.240356567827E+02   -0.50679E-03   -0.12438E-03    16   0.201E-01    0.246E-02
RMM:  14    -0.240386713516E+02   -0.30146E-02   -0.71247E-04    16   0.156E-01    0.106E-02
RMM:  15    -0.240388122201E+02   -0.14087E-03   -0.17543E-04    16   0.724E-02    0.248E-02
RMM:  16    -0.240390526724E+02   -0.24045E-03   -0.12439E-04    16   0.668E-02    0.461E-03
RMM:  17    -0.240390803590E+02   -0.27687E-04   -0.39225E-06    15   0.155E-02    0.249E-03
RMM:  18    -0.240390942883E+02   -0.13929E-04   -0.24421E-06    14   0.954E-03    0.144E-03
RMM:  19    -0.240390951662E+02   -0.87788E-06   -0.49303E-07    12   0.435E-03
   1 F= -.24039095E+02 E0= -.24039095E+02  d E =-.240391E+02
       N       E                     dE             d eps       ncg     rms          rms(c)
DAV:   1    -0.239109382543E+02    0.12816E+00   -0.10589E+01    16   0.312E+01    0.125E+00
RMM:   2    -0.239139664625E+02   -0.30282E-02   -0.17275E-01    16   0.340E+00    0.890E-01
RMM:   3    -0.239094709945E+02    0.44955E-02   -0.36141E-02    16   0.131E+00    0.115E-01
RMM:   4    -0.239091738681E+02    0.29713E-03   -0.72286E-04    16   0.236E-01    0.873E-02
RMM:   5    -0.239091717558E+02    0.21124E-05   -0.10736E-03    16   0.195E-01    0.372E-02
RMM:   6    -0.239091679544E+02    0.38013E-05   -0.16897E-04    16   0.807E-02    0.120E-02
RMM:   7    -0.239092078974E+02   -0.39943E-04   -0.29373E-05    16   0.322E-02    0.471E-03
RMM:   8    -0.239092181102E+02   -0.10213E-04   -0.51600E-06    15   0.137E-02    0.318E-03
RMM:   9    -0.239092638208E+02   -0.45711E-04   -0.10212E-05    16   0.186E-02    0.432E-03
RMM:  10    -0.239092644886E+02   -0.66779E-06   -0.46903E-07    12   0.478E-03
   2 F= -.23909264E+02 E0= -.23909264E+02  d E =0.129831E+00
       N       E                     dE             d eps       ncg     rms          rms(c)
DAV:   1    -0.240581780834E+02   -0.14891E+00   -0.57593E+00    16   0.232E+01    0.898E-01
RMM:   2    -0.240582215462E+02   -0.43463E-04   -0.72745E-02    16   0.235E+00    0.605E-01
RMM:   3    -0.240562843924E+02    0.19372E-02   -0.26248E-02    16   0.108E+00    0.127E-01
RMM:   4    -0.240556321968E+02    0.65220E-03   -0.85650E-04    16   0.231E-01    0.685E-02
RMM:   5    -0.240556303943E+02    0.18026E-05   -0.14414E-03    16   0.226E-01    0.392E-02
RMM:   6    -0.240555939696E+02    0.36425E-04   -0.24939E-04    16   0.947E-02    0.161E-02
RMM:   7    -0.240556245797E+02   -0.30610E-04   -0.29318E-05    16   0.365E-02    0.717E-03
RMM:   8    -0.240556240350E+02    0.54474E-06   -0.74765E-06    16   0.160E-02
   3 F= -.24055624E+02 E0= -.24055624E+02  d E =-.165289E-01
       N       E                     dE             d eps       ncg     rms          rms(c)
DAV:   1    -0.240561018426E+02   -0.47726E-03   -0.12018E-02    32   0.106E+00    0.483E-02
RMM:   2    -0.240561005707E+02    0.12718E-05   -0.15445E-04    16   0.949E-02    0.324E-02
RMM:   3    -0.240561046027E+02   -0.40319E-05   -0.50605E-05    16   0.480E-02    0.550E-03
RMM:   4    -0.240561051855E+02   -0.58285E-06   -0.16898E-06    12   0.105E-02
   4 F= -.24056105E+02 E0= -.24056105E+02  d E =-.170100E-01
       N       E                     dE             d eps       ncg     rms          rms(c)
DAV:   1    -0.240654021226E+02   -0.92975E-02   -0.57463E-01    16   0.768E+00    0.335E-01
RMM:   2    -0.240652350767E+02    0.16705E-03   -0.65254E-03    16   0.744E-01    0.217E-01
RMM:   3    -0.240651747054E+02    0.60371E-04   -0.23495E-03    16   0.310E-01    0.523E-02
RMM:   4    -0.240651217865E+02    0.52919E-04   -0.11313E-04    16   0.743E-02    0.280E-02
RMM:   5    -0.240651362988E+02   -0.14512E-04   -0.12792E-04    16   0.686E-02    0.116E-02
RMM:   6    -0.240651360089E+02    0.28986E-06   -0.37040E-05    16   0.357E-02    0.515E-03
RMM:   7    -0.240651460816E+02   -0.10073E-04   -0.39324E-06    15   0.123E-02    0.172E-03
RMM:   8    -0.240651488846E+02   -0.28030E-05   -0.10599E-06    12   0.659E-03    0.681E-04
RMM:   9    -0.240651594163E+02   -0.10532E-04   -0.11542E-06    12   0.563E-03    0.608E-04
RMM:  10    -0.240651603829E+02   -0.96665E-06   -0.22422E-07    12   0.295E-03
   5 F= -.24065160E+02 E0= -.24065160E+02  d E =-.905520E-02
       N       E                     dE             d eps       ncg     rms          rms(c)
DAV:   1    -0.240658892114E+02   -0.72980E-03   -0.14925E-02    32   0.123E+00    0.532E-02
RMM:   2    -0.240658732852E+02    0.15926E-04   -0.12675E-04    16   0.899E-02    0.323E-02
RMM:   3    -0.240658742616E+02   -0.97635E-06   -0.47649E-05    16   0.446E-02    0.939E-03
RMM:   4    -0.240658737245E+02    0.53711E-06   -0.25195E-06    13   0.119E-02
   6 F= -.24065874E+02 E0= -.24065874E+02  d E =-.976854E-02
       N       E                     dE             d eps       ncg     rms          rms(c)
DAV:   1    -0.240682274833E+02   -0.23532E-02   -0.10307E-01    32   0.311E+00    0.127E-01
RMM:   2    -0.240681972076E+02    0.30276E-04   -0.17306E-03    16   0.332E-01    0.766E-02
RMM:   3    -0.240681648761E+02    0.32332E-04   -0.39019E-04    16   0.147E-01    0.132E-02
RMM:   4    -0.240681599292E+02    0.49469E-05   -0.93353E-06    16   0.272E-02    0.775E-03
RMM:   5    -0.240681585403E+02    0.13889E-05   -0.18829E-05    16   0.261E-02    0.441E-03
RMM:   6    -0.240681607667E+02   -0.22264E-05   -0.13156E-05    16   0.208E-02    0.485E-03
RMM:   7    -0.240681596411E+02    0.11256E-05   -0.32225E-06    15   0.103E-02    0.112E-03
RMM:   8    -0.240681604803E+02   -0.83918E-06   -0.49003E-07    12   0.505E-03
   7 F= -.24068160E+02 E0= -.24068160E+02  d E =-.228676E-02
       N       E                     dE             d eps       ncg     rms          rms(c)
DAV:   1    -0.240685515623E+02   -0.39192E-03   -0.82040E-03    32   0.878E-01    0.357E-02
RMM:   2    -0.240685512187E+02    0.34361E-06   -0.15830E-04    16   0.102E-01    0.218E-02
RMM:   3    -0.240685510045E+02    0.21423E-06   -0.30712E-05    16   0.419E-02    0.422E-03
RMM:   4    -0.240685511679E+02   -0.16347E-06   -0.73835E-07    12   0.851E-03
   8 F= -.24068551E+02 E0= -.24068551E+02  d E =-.267744E-02
       N       E                     dE             d eps       ncg     rms          rms(c)
DAV:   1    -0.240698723359E+02   -0.13213E-02   -0.22062E-02    32   0.144E+00    0.670E-02
RMM:   2    -0.240698243667E+02    0.47969E-04   -0.36566E-04    16   0.143E-01    0.380E-02
RMM:   3    -0.240698214337E+02    0.29330E-05   -0.10552E-04    16   0.668E-02    0.147E-02
RMM:   4    -0.240698209991E+02    0.43465E-06   -0.54523E-06    16   0.176E-02
   9 F= -.24069821E+02 E0= -.24069821E+02  d E =-.126983E-02
       N       E                     dE             d eps       ncg     rms          rms(c)
DAV:   1    -0.240698383184E+02   -0.16885E-04   -0.32163E-04    32   0.173E-01    0.896E-03
RMM:   2    -0.240698374626E+02    0.85587E-06   -0.63372E-06    16   0.186E-02    0.484E-03
RMM:   3    -0.240698379597E+02   -0.49712E-06   -0.15699E-06    12   0.891E-03    0.193E-03
RMM:   4    -0.240698385205E+02   -0.56078E-06   -0.18900E-07    12   0.411E-03
  10 F= -.24069839E+02 E0= -.24069839E+02  d E =-.128735E-02
       N       E                     dE             d eps       ncg     rms          rms(c)
DAV:   1    -0.240707231176E+02   -0.88516E-03   -0.10895E-02    16   0.105E+00    0.306E-02
RMM:   2    -0.240707284971E+02   -0.53796E-05   -0.13088E-04    16   0.107E-01    0.192E-02
RMM:   3    -0.240707283791E+02    0.11809E-06   -0.20413E-05    16   0.319E-02    0.370E-03
RMM:   4    -0.240707283994E+02   -0.20308E-07   -0.54689E-07    12   0.696E-03
  11 F= -.24070728E+02 E0= -.24070728E+02  d E =-.889879E-03
       N       E                     dE             d eps       ncg     rms          rms(c)
DAV:   1    -0.240710291147E+02   -0.30074E-03   -0.63514E-03    32   0.802E-01    0.245E-02
RMM:   2    -0.240710275385E+02    0.15761E-05   -0.53809E-05    16   0.631E-02    0.144E-02
RMM:   3    -0.240710280714E+02   -0.53284E-06   -0.11899E-05    16   0.232E-02    0.314E-03
RMM:   4    -0.240710283491E+02   -0.27771E-06   -0.36904E-07    12   0.546E-03
  12 F= -.24071028E+02 E0= -.24071028E+02  d E =-.118983E-02
       N       E                     dE             d eps       ncg     rms          rms(c)
DAV:   1    -0.240716977551E+02   -0.66968E-03   -0.66607E-03    16   0.804E-01    0.293E-02
RMM:   2    -0.240716993886E+02   -0.16335E-05   -0.75610E-05    16   0.804E-02    0.179E-02
RMM:   3    -0.240717003335E+02   -0.94490E-06   -0.16139E-05    16   0.282E-02    0.317E-03
RMM:   4    -0.240717004268E+02   -0.93328E-07   -0.42190E-07    12   0.594E-03
  13 F= -.24071700E+02 E0= -.24071700E+02  d E =-.672078E-03
       N       E                     dE             d eps       ncg     rms          rms(c)
DAV:   1    -0.240719536929E+02   -0.25336E-03   -0.67898E-03    32   0.807E-01    0.305E-02
RMM:   2    -0.240719487855E+02    0.49074E-05   -0.54343E-05    16   0.668E-02    0.179E-02
RMM:   3    -0.240719497122E+02   -0.92676E-06   -0.18201E-05    16   0.284E-02    0.386E-03
RMM:   4    -0.240719498280E+02   -0.11574E-06   -0.64752E-07    12   0.663E-03
  14 F= -.24071950E+02 E0= -.24071950E+02  d E =-.921479E-03
       N       E                     dE             d eps       ncg     rms          rms(c)
DAV:   1    -0.240724735700E+02   -0.52386E-03   -0.62952E-03    32   0.809E-01    0.258E-02
RMM:   2    -0.240724703874E+02    0.31826E-05   -0.46580E-05    16   0.574E-02    0.157E-02
RMM:   3    -0.240724711263E+02   -0.73896E-06   -0.10906E-05    16   0.233E-02    0.412E-03
RMM:   4    -0.240724712320E+02   -0.10564E-06   -0.39727E-07    12   0.546E-03
  15 F= -.24072471E+02 E0= -.24072471E+02  d E =-.521404E-03
       N       E                     dE             d eps       ncg     rms          rms(c)
DAV:   1    -0.240730925919E+02   -0.62147E-03   -0.19460E-02    32   0.142E+00    0.495E-02
RMM:   2    -0.240730798608E+02    0.12731E-04   -0.15084E-04    16   0.102E-01    0.294E-02
RMM:   3    -0.240730804623E+02   -0.60156E-06   -0.39385E-05    16   0.435E-02    0.789E-03
RMM:   4    -0.240730802659E+02    0.19640E-06   -0.16415E-06    12   0.106E-02
  16 F= -.24073080E+02 E0= -.24073080E+02  d E =-.113044E-02
       N       E                     dE             d eps       ncg     rms          rms(c)
DAV:   1    -0.240729235102E+02    0.15695E-03   -0.77075E-02    16   0.282E+00    0.102E-01
RMM:   2    -0.240729298423E+02   -0.63321E-05   -0.83823E-04    16   0.269E-01    0.640E-02
RMM:   3    -0.240729261354E+02    0.37069E-05   -0.20779E-04    16   0.101E-01    0.150E-02
RMM:   4    -0.240729230116E+02    0.31238E-05   -0.69705E-06    16   0.217E-02    0.839E-03
RMM:   5    -0.240729266061E+02   -0.35945E-05   -0.15925E-05    16   0.241E-02    0.385E-03
RMM:   6    -0.240729282646E+02   -0.16585E-05   -0.44366E-06    15   0.124E-02    0.203E-03
RMM:   7    -0.240729327098E+02   -0.44452E-05   -0.51311E-07    12   0.452E-03    0.704E-04
RMM:   8    -0.240729356632E+02   -0.29534E-05   -0.43114E-07    12   0.419E-03    0.522E-04
RMM:   9    -0.240729399584E+02   -0.42953E-05   -0.28765E-07    11   0.289E-03    0.226E-04
RMM:  10    -0.240729406211E+02   -0.66263E-06    0.00000E+00     8   0.158E-03
  17 F= -.24072941E+02 E0= -.24072941E+02  d E =-.990793E-03
       N       E                     dE             d eps       ncg     rms          rms(c)
DAV:   1    -0.240733900264E+02   -0.45007E-03   -0.42030E-02    32   0.206E+00    0.777E-02
RMM:   2    -0.240733769950E+02    0.13031E-04   -0.43213E-04    16   0.185E-01    0.469E-02
RMM:   3    -0.240733758304E+02    0.11646E-05   -0.83891E-05    16   0.641E-02    0.131E-02
RMM:   4    -0.240733755457E+02    0.28472E-06   -0.34368E-06    16   0.154E-02
  18 F= -.24073376E+02 E0= -.24073376E+02  d E =-.142572E-02
       N       E                     dE             d eps       ncg     rms          rms(c)
DAV:   1    -0.240735489005E+02   -0.17307E-03   -0.10479E-02    32   0.104E+00    0.405E-02
RMM:   2    -0.240735467389E+02    0.21616E-05   -0.84526E-05    16   0.818E-02    0.242E-02
RMM:   3    -0.240735502142E+02   -0.34753E-05   -0.20083E-05    16   0.315E-02    0.538E-03
RMM:   4    -0.240735505917E+02   -0.37750E-06   -0.65717E-07    12   0.711E-03
  19 F= -.24073551E+02 E0= -.24073551E+02  d E =-.160076E-02
       N       E                     dE             d eps       ncg     rms          rms(c)
DAV:   1    -0.240736486667E+02   -0.98452E-04   -0.30422E-04    32   0.174E-01    0.669E-03
RMM:   2    -0.240736485720E+02    0.94677E-07   -0.28261E-06    14   0.149E-02    0.392E-03
RMM:   3    -0.240736488259E+02   -0.25392E-06   -0.66525E-07    12   0.634E-03    0.973E-04
RMM:   4    -0.240736488538E+02   -0.27930E-07   -0.70242E-08    12   0.260E-03
  20 F= -.24073649E+02 E0= -.24073649E+02  d E =-.982622E-04
       N       E                     dE             d eps       ncg     rms          rms(c)
DAV:   1    -0.240737855510E+02   -0.13673E-03   -0.26983E-03    32   0.517E-01    0.185E-02
RMM:   2    -0.240737847630E+02    0.78798E-06   -0.19736E-05    16   0.414E-02    0.111E-02
RMM:   3    -0.240737850717E+02   -0.30871E-06   -0.36046E-06    15   0.142E-02    0.193E-03
RMM:   4    -0.240737850095E+02    0.62234E-07   -0.17000E-07    12   0.383E-03
  21 F= -.24073785E+02 E0= -.24073785E+02  d E =-.234418E-03
       N       E                     dE             d eps       ncg     rms          rms(c)
DAV:   1    -0.240740297158E+02   -0.24464E-03   -0.72756E-05    32   0.854E-02    0.428E-03
RMM:   2    -0.240740296618E+02    0.54007E-07   -0.37483E-07    12   0.525E-03    0.254E-03
RMM:   3    -0.240740298690E+02   -0.20721E-06   -0.29394E-07    12   0.402E-03    0.499E-04
RMM:   4    -0.240740300189E+02   -0.14997E-06   -0.76120E-09     9   0.145E-03
  22 F= -.24074030E+02 E0= -.24074030E+02  d E =-.245009E-03
       N       E                     dE             d eps       ncg     rms          rms(c)
DAV:   1    -0.240747577149E+02   -0.72785E-03   -0.67610E-04    32   0.257E-01    0.135E-02
RMM:   2    -0.240747562410E+02    0.14739E-05   -0.50557E-06    16   0.171E-02    0.792E-03
RMM:   3    -0.240747563444E+02   -0.10339E-06   -0.22778E-06    13   0.995E-03    0.199E-03
RMM:   4    -0.240747563861E+02   -0.41678E-07   -0.16985E-07    12   0.353E-03
  23 F= -.24074756E+02 E0= -.24074756E+02  d E =-.971377E-03
       N       E                     dE             d eps       ncg     rms          rms(c)
DAV:   1    -0.240761506031E+02   -0.13943E-02   -0.27048E-03    32   0.513E-01    0.268E-02
RMM:   2    -0.240761451918E+02    0.54112E-05   -0.19733E-05    16   0.334E-02    0.159E-02
RMM:   3    -0.240761453992E+02   -0.20739E-06   -0.10091E-05    16   0.198E-02    0.434E-03
RMM:   4    -0.240761453397E+02    0.59504E-07   -0.88710E-07    12   0.670E-03
  24 F= -.24076145E+02 E0= -.24076145E+02  d E =-.236033E-02
       N       E                     dE             d eps       ncg     rms          rms(c)
DAV:   1    -0.240784632077E+02   -0.23178E-02   -0.10797E-02    16   0.103E+00    0.521E-02
RMM:   2    -0.240784506759E+02    0.12532E-04   -0.91030E-05    16   0.866E-02    0.313E-02
RMM:   3    -0.240784505464E+02    0.12950E-06   -0.58982E-05    16   0.468E-02    0.802E-03
RMM:   4    -0.240784490894E+02    0.14570E-05   -0.15019E-06    12   0.954E-03    0.500E-03
RMM:   5    -0.240784500523E+02   -0.96297E-06   -0.10432E-05    16   0.191E-02    0.322E-03
RMM:   6    -0.240784496357E+02    0.41659E-06   -0.74686E-07    12   0.602E-03
  25 F= -.24078450E+02 E0= -.24078450E+02  d E =-.466463E-02
       N       E                     dE             d eps       ncg     rms          rms(c)
DAV:   1    -0.240803631374E+02   -0.19131E-02   -0.43239E-02    16   0.206E+00    0.973E-02
RMM:   2    -0.240803237080E+02    0.39429E-04   -0.36055E-04    16   0.174E-01    0.580E-02
RMM:   3    -0.240803224910E+02    0.12170E-05   -0.21396E-04    16   0.894E-02    0.150E-02
RMM:   4    -0.240803173154E+02    0.51756E-05   -0.53160E-06    16   0.174E-02    0.934E-03
RMM:   5    -0.240803191322E+02   -0.18168E-05   -0.29239E-05    16   0.316E-02    0.514E-03
RMM:   6    -0.240803182483E+02    0.88393E-06   -0.24549E-06    14   0.965E-03
  26 F= -.24080318E+02 E0= -.24080318E+02  d E =-.653324E-02
       N       E                     dE             d eps       ncg     rms          rms(c)
DAV:   1    -0.240814666748E+02   -0.11475E-02   -0.39271E-03    32   0.625E-01    0.191E-02
RMM:   2    -0.240814672971E+02   -0.62233E-06   -0.45046E-05    16   0.541E-02    0.124E-02
RMM:   3    -0.240814679368E+02   -0.63965E-06   -0.70456E-06    16   0.199E-02    0.231E-03
RMM:   4    -0.240814683536E+02   -0.41684E-06   -0.20711E-07    12   0.444E-03
  27 F= -.24081468E+02 E0= -.24081468E+02  d E =-.115011E-02
       N       E                     dE             d eps       ncg     rms          rms(c)
DAV:   1    -0.240820879653E+02   -0.62003E-03   -0.52228E-03    16   0.722E-01    0.207E-02
RMM:   2    -0.240820908940E+02   -0.29287E-05   -0.81499E-05    16   0.813E-02    0.138E-02
RMM:   3    -0.240820906546E+02    0.23943E-06   -0.99016E-06    16   0.242E-02    0.374E-03
RMM:   4    -0.240820909081E+02   -0.25348E-06   -0.33657E-07    12   0.562E-03
  28 F= -.24082091E+02 E0= -.24082091E+02  d E =-.177266E-02
       N       E                     dE             d eps       ncg     rms          rms(c)
DAV:   1    -0.240821173807E+02   -0.26726E-04   -0.33141E-04    32   0.182E-01    0.569E-03
RMM:   2    -0.240821174502E+02   -0.69495E-07   -0.41007E-06    14   0.172E-02    0.343E-03
RMM:   3    -0.240821178290E+02   -0.37871E-06   -0.61768E-07    12   0.640E-03    0.970E-04
RMM:   4    -0.240821181501E+02   -0.32113E-06   -0.68190E-08    11   0.273E-03
  29 F= -.24082118E+02 E0= -.24082118E+02  d E =-.179990E-02
       N       E                     dE             d eps       ncg     rms          rms(c)
DAV:   1    -0.240824654545E+02   -0.34763E-03   -0.80226E-04    32   0.283E-01    0.776E-03
RMM:   2    -0.240824653032E+02    0.15128E-06   -0.56926E-06    14   0.205E-02    0.480E-03
RMM:   3    -0.240824656458E+02   -0.34260E-06   -0.15015E-06    12   0.956E-03    0.531E-04
RMM:   4    -0.240824657378E+02   -0.92024E-07   -0.14318E-07    12   0.376E-03
  30 F= -.24082466E+02 E0= -.24082466E+02  d E =-.347588E-03
       N       E                     dE             d eps       ncg     rms          rms(c)
DAV:   1    -0.240830961935E+02   -0.63055E-03   -0.72378E-03    32   0.849E-01    0.232E-02
RMM:   2    -0.240830943354E+02    0.18581E-05   -0.48922E-05    16   0.602E-02    0.143E-02
RMM:   3    -0.240830938510E+02    0.48436E-06   -0.13486E-05    16   0.266E-02    0.172E-03
RMM:   4    -0.240830938455E+02    0.55447E-08   -0.22523E-07    12   0.469E-03
  31 F= -.24083094E+02 E0= -.24083094E+02  d E =-.975695E-03
       N       E                     dE             d eps       ncg     rms          rms(c)
DAV:   1    -0.240825236392E+02    0.57021E-03   -0.29061E-02    32   0.170E+00    0.475E-02
RMM:   2    -0.240825156504E+02    0.79888E-05   -0.18578E-04    16   0.117E-01    0.292E-02
RMM:   3    -0.240825126415E+02    0.30088E-05   -0.55879E-05    16   0.534E-02    0.352E-03
RMM:   4    -0.240825127934E+02   -0.15189E-06   -0.95020E-07    12   0.965E-03
  32 F= -.24082513E+02 E0= -.24082513E+02  d E =-.394643E-03
       N       E                     dE             d eps       ncg     rms          rms(c)
DAV:   1    -0.240831584124E+02   -0.64577E-03   -0.15454E-02    16   0.125E+00    0.328E-02
RMM:   2    -0.240831708402E+02   -0.12428E-04   -0.17748E-04    16   0.122E-01    0.217E-02
RMM:   3    -0.240831738283E+02   -0.29881E-05   -0.22112E-05    16   0.368E-02    0.300E-03
RMM:   4    -0.240831743998E+02   -0.57149E-06   -0.58093E-07    12   0.759E-03
  33 F= -.24083174E+02 E0= -.24083174E+02  d E =-.105625E-02
       N       E                     dE             d eps       ncg     rms          rms(c)
DAV:   1    -0.240833883308E+02   -0.21450E-03   -0.18163E-03    32   0.432E-01    0.123E-02
RMM:   2    -0.240833897870E+02   -0.14562E-05   -0.27564E-05    16   0.475E-02    0.789E-03
RMM:   3    -0.240833899231E+02   -0.13613E-06   -0.36631E-06    15   0.146E-02    0.140E-03
RMM:   4    -0.240833899766E+02   -0.53476E-07   -0.21900E-07    12   0.469E-03
  34 F= -.24083390E+02 E0= -.24083390E+02  d E =-.215577E-03
       N       E                     dE             d eps       ncg     rms          rms(c)
DAV:   1    -0.240834736683E+02   -0.83745E-04   -0.21044E-03    32   0.466E-01    0.130E-02
RMM:   2    -0.240834744875E+02   -0.81919E-06   -0.27321E-05    16   0.471E-02    0.817E-03
RMM:   3    -0.240834742065E+02    0.28098E-06   -0.40814E-06    15   0.154E-02    0.130E-03
RMM:   4    -0.240834741990E+02    0.74622E-08   -0.19278E-07    12   0.436E-03
  35 F= -.24083474E+02 E0= -.24083474E+02  d E =-.299799E-03
       N       E                     dE             d eps       ncg     rms          rms(c)
DAV:   1    -0.240837324088E+02   -0.25820E-03   -0.11579E-03    32   0.344E-01    0.151E-02
RMM:   2    -0.240837308617E+02    0.15471E-05   -0.76875E-06    16   0.241E-02    0.880E-03
RMM:   3    -0.240837310740E+02   -0.21235E-06   -0.26802E-06    14   0.110E-02    0.203E-03
RMM:   4    -0.240837311529E+02   -0.78929E-07   -0.17209E-07    12   0.348E-03
  36 F= -.24083731E+02 E0= -.24083731E+02  d E =-.256954E-03
       N       E                     dE             d eps       ncg     rms          rms(c)
DAV:   1    -0.240845804411E+02   -0.84937E-03   -0.10414E-02    32   0.103E+00    0.456E-02
RMM:   2    -0.240845693691E+02    0.11072E-04   -0.74110E-05    16   0.731E-02    0.268E-02
RMM:   3    -0.240845701806E+02   -0.81150E-06   -0.25077E-05    16   0.328E-02    0.676E-03
RMM:   4    -0.240845699320E+02    0.24857E-06   -0.14881E-06    12   0.921E-03
  37 F= -.24084570E+02 E0= -.24084570E+02  d E =-.109573E-02
       N       E                     dE             d eps       ncg     rms          rms(c)
DAV:   1    -0.240825179060E+02    0.20523E-02   -0.41769E-02    16   0.207E+00    0.828E-02
RMM:   2    -0.240825048135E+02    0.13092E-04   -0.42201E-04    16   0.190E-01    0.521E-02
RMM:   3    -0.240825048392E+02   -0.25665E-07   -0.12756E-04    16   0.752E-02    0.127E-02
RMM:   4    -0.240825029446E+02    0.18946E-05   -0.67992E-06    16   0.189E-02    0.628E-03
RMM:   5    -0.240825054356E+02   -0.24910E-05   -0.76647E-06    16   0.167E-02    0.281E-03
RMM:   6    -0.240825063287E+02   -0.89308E-06   -0.14795E-06    12   0.775E-03
  38 F= -.24082506E+02 E0= -.24082506E+02  d E =0.967870E-03
       N       E                     dE             d eps       ncg     rms          rms(c)
DAV:   1    -0.240847565368E+02   -0.22511E-02   -0.28590E-02    16   0.172E+00    0.683E-02
RMM:   2    -0.240847511187E+02    0.54181E-05   -0.28700E-04    16   0.154E-01    0.428E-02
RMM:   3    -0.240847581417E+02   -0.70231E-05   -0.85412E-05    16   0.613E-02    0.106E-02
RMM:   4    -0.240847560732E+02    0.20685E-05   -0.47160E-06    16   0.157E-02    0.497E-03
RMM:   5    -0.240847562072E+02   -0.13402E-06   -0.43854E-06    15   0.128E-02
  39 F= -.24084756E+02 E0= -.24084756E+02  d E =-.128201E-02
       N       E                     dE             d eps       ncg     rms          rms(c)
DAV:   1    -0.240855559781E+02   -0.79990E-03   -0.23979E-03    32   0.465E-01    0.180E-02
RMM:   2    -0.240855561256E+02   -0.14749E-06   -0.39702E-05    16   0.525E-02    0.106E-02
RMM:   3    -0.240855559164E+02    0.20920E-06   -0.72318E-06    16   0.202E-02    0.211E-03
RMM:   4    -0.240855561755E+02   -0.25908E-06   -0.19394E-07    12   0.432E-03
  40 F= -.24085556E+02 E0= -.24085556E+02  d E =-.799968E-03
       N       E                     dE             d eps       ncg     rms          rms(c)
DAV:   1    -0.240865790303E+02   -0.10231E-02   -0.14079E-02    32   0.113E+00    0.421E-02
RMM:   2    -0.240865760762E+02    0.29540E-05   -0.21063E-04    16   0.122E-01    0.255E-02
RMM:   3    -0.240865712155E+02    0.48607E-05   -0.43950E-05    16   0.493E-02    0.487E-03
RMM:   4    -0.240865712364E+02   -0.20862E-07   -0.94656E-07    12   0.928E-03
  41 F= -.24086571E+02 E0= -.24086571E+02  d E =-.181503E-02
       N       E                     dE             d eps       ncg     rms          rms(c)
DAV:   1    -0.240865986678E+02   -0.27452E-04   -0.63422E-04    32   0.239E-01    0.876E-03
RMM:   2    -0.240865986111E+02    0.56725E-07   -0.11557E-05    15   0.282E-02    0.540E-03
RMM:   3    -0.240865985094E+02    0.10165E-06   -0.19602E-06    13   0.108E-02    0.111E-03
RMM:   4    -0.240865986108E+02   -0.10132E-06   -0.17150E-07    12   0.411E-03
  42 F= -.24086599E+02 E0= -.24086599E+02  d E =-.184240E-02
       N       E                     dE             d eps       ncg     rms          rms(c)
DAV:   1    -0.240869183818E+02   -0.31987E-03   -0.12854E-03    32   0.359E-01    0.125E-02
RMM:   2    -0.240869155779E+02    0.28038E-05   -0.14501E-05    16   0.306E-02    0.655E-03
RMM:   3    -0.240869156004E+02   -0.22426E-07   -0.45718E-06    15   0.139E-02    0.232E-03
RMM:   4    -0.240869157555E+02   -0.15520E-06   -0.26713E-07    12   0.430E-03
  43 F= -.24086916E+02 E0= -.24086916E+02  d E =-.317145E-03
       N       E                     dE             d eps       ncg     rms          rms(c)
DAV:   1    -0.240871981979E+02   -0.28260E-03   -0.43685E-03    32   0.661E-01    0.229E-02
RMM:   2    -0.240871885429E+02    0.96550E-05   -0.49470E-05    16   0.559E-02    0.118E-02
RMM:   3    -0.240871883886E+02    0.15436E-06   -0.16002E-05    16   0.258E-02    0.440E-03
RMM:   4    -0.240871885966E+02   -0.20803E-06   -0.81830E-07    12   0.721E-03
  44 F= -.24087189E+02 E0= -.24087189E+02  d E =-.589986E-03
       N       E                     dE             d eps       ncg     rms          rms(c)
DAV:   1    -0.240873707909E+02   -0.18240E-03   -0.11903E-03    32   0.360E-01    0.926E-03
RMM:   2    -0.240873704620E+02    0.32891E-06   -0.60368E-06    16   0.225E-02    0.557E-03
RMM:   3    -0.240873706390E+02   -0.17703E-06   -0.12517E-06    12   0.856E-03    0.786E-04
RMM:   4    -0.240873707635E+02   -0.12455E-06   -0.15164E-07    12   0.383E-03
  45 F= -.24087371E+02 E0= -.24087371E+02  d E =-.182167E-03
       N       E                     dE             d eps       ncg     rms          rms(c)
DAV:   1    -0.240874224184E+02   -0.51779E-04   -0.11882E-03    32   0.359E-01    0.924E-03
RMM:   2    -0.240874221668E+02    0.25157E-06   -0.60201E-06    16   0.231E-02    0.563E-03
RMM:   3    -0.240874222918E+02   -0.12497E-06   -0.11609E-06    12   0.845E-03    0.623E-04
RMM:   4    -0.240874224062E+02   -0.11447E-06   -0.14243E-07    12   0.376E-03
  46 F= -.24087422E+02 E0= -.24087422E+02  d E =-.233810E-03
       N       E                     dE             d eps       ncg     rms          rms(c)
DAV:   1    -0.240874604252E+02   -0.38133E-04   -0.44568E-04    32   0.213E-01    0.774E-03
RMM:   2    -0.240874595942E+02    0.83095E-06   -0.59564E-06    15   0.190E-02    0.426E-03
RMM:   3    -0.240874597580E+02   -0.16377E-06   -0.12793E-06    12   0.866E-03    0.142E-03
RMM:   4    -0.240874599626E+02   -0.20463E-06   -0.12897E-07    12   0.354E-03
  47 F= -.24087460E+02 E0= -.24087460E+02  d E =-.375564E-04
       N       E                     dE             d eps       ncg     rms          rms(c)
DAV:   1    -0.240874601870E+02   -0.42899E-06   -0.14437E-07    32   0.345E-03    0.206E-04
RMM:   2    -0.240874602957E+02   -0.10874E-06    0.00000E+00     8   0.333E-04    0.131E-04
RMM:   3    -0.240874605868E+02   -0.29107E-06    0.00000E+00     8   0.762E-04    0.336E-05
RMM:   4    -0.240874609933E+02   -0.40646E-06    0.00000E+00     8   0.115E-03
  48 F= -.24087461E+02 E0= -.24087461E+02  d E =-.385870E-04
       N       E                     dE             d eps       ncg     rms          rms(c)
DAV:   1    -0.240874874164E+02   -0.26830E-04   -0.12820E-04    32   0.110E-01    0.365E-03
RMM:   2    -0.240874873584E+02    0.58003E-07   -0.10410E-06    12   0.959E-03    0.224E-03
RMM:   3    -0.240874874498E+02   -0.91405E-07   -0.36675E-07    12   0.511E-03    0.397E-04
RMM:   4    -0.240874874502E+02   -0.39569E-09   -0.28378E-08    10   0.212E-03
  49 F= -.24087487E+02 E0= -.24087487E+02  d E =-.264570E-04
       N       E                     dE             d eps       ncg     rms          rms(c)
DAV:   1    -0.240875014533E+02   -0.14003E-04   -0.26885E-04    32   0.160E-01    0.526E-03
RMM:   2    -0.240875013285E+02    0.12485E-06   -0.24846E-06    13   0.139E-02    0.327E-03
RMM:   3    -0.240875014199E+02   -0.91416E-07   -0.61230E-07    12   0.630E-03    0.604E-04
RMM:   4    -0.240875014176E+02    0.22382E-08   -0.66157E-08    12   0.254E-03
  50 F= -.24087501E+02 E0= -.24087501E+02  d E =-.404244E-04
       N       E                     dE             d eps       ncg     rms          rms(c)
DAV:   1    -0.240875163625E+02   -0.14943E-04   -0.16298E-04    32   0.124E-01    0.439E-03
RMM:   2    -0.240875162528E+02    0.10975E-06   -0.10405E-06    12   0.947E-03    0.255E-03
RMM:   3    -0.240875163560E+02   -0.10317E-06   -0.43140E-07    12   0.539E-03    0.442E-04
RMM:   4    -0.240875163609E+02   -0.49475E-08   -0.31181E-08    10   0.215E-03
  51 F= -.24087516E+02 E0= -.24087516E+02  d E =-.149433E-04
       N       E                     dE             d eps       ncg     rms          rms(c)
DAV:   1    -0.240875179402E+02   -0.15842E-05   -0.32266E-05    32   0.551E-02    0.199E-03
RMM:   2    -0.240875179246E+02    0.15530E-07   -0.24232E-07    12   0.465E-03    0.114E-03
RMM:   3    -0.240875179598E+02   -0.35128E-07   -0.86814E-08    12   0.254E-03    0.203E-04
RMM:   4    -0.240875179645E+02   -0.47731E-08   -0.43062E-09     9   0.106E-03
  52 F= -.24087518E+02 E0= -.24087518E+02  d E =-.165469E-04
       N       E                     dE             d eps       ncg     rms          rms(c)
DAV:   1    -0.240875306489E+02   -0.12689E-04   -0.10133E-04    32   0.103E-01    0.269E-03
RMM:   2    -0.240875305629E+02    0.86023E-07   -0.43325E-07    12   0.656E-03    0.161E-03
RMM:   3    -0.240875305938E+02   -0.30940E-07   -0.16999E-07    12   0.334E-03    0.254E-04
RMM:   4    -0.240875305958E+02   -0.19367E-08   -0.49819E-09     9   0.139E-03
  53 F= -.24087531E+02 E0= -.24087531E+02  d E =-.126312E-04
       N       E                     dE             d eps       ncg     rms          rms(c)
DAV:   1    -0.240875390847E+02   -0.84909E-05   -0.91338E-04    24   0.309E-01    0.813E-03
RMM:   2    -0.240875386774E+02    0.40736E-06   -0.49281E-06    16   0.204E-02    0.488E-03
RMM:   3    -0.240875387917E+02   -0.11437E-06   -0.99954E-07    12   0.760E-03    0.773E-04
RMM:   4    -0.240875387925E+02   -0.73823E-09   -0.12564E-07    12   0.345E-03
  54 F= -.24087539E+02 E0= -.24087539E+02  d E =-.208279E-04
       N       E                     dE             d eps       ncg     rms          rms(c)
DAV:   1    -0.240875532539E+02   -0.14462E-04   -0.27321E-04    32   0.155E-01    0.853E-03
RMM:   2    -0.240875528291E+02    0.42478E-06   -0.58109E-06    15   0.193E-02    0.464E-03
RMM:   3    -0.240875529780E+02   -0.14890E-06   -0.18579E-06    13   0.969E-03    0.131E-03
RMM:   4    -0.240875530126E+02   -0.34583E-07   -0.12009E-07    12   0.328E-03
  55 F= -.24087553E+02 E0= -.24087553E+02  d E =-.142201E-04
       N       E                     dE             d eps       ncg     rms          rms(c)
DAV:   1    -0.240875564017E+02   -0.34236E-05   -0.25258E-05    32   0.472E-02    0.263E-03
RMM:   2    -0.240875563629E+02    0.38769E-07   -0.47881E-07    12   0.581E-03    0.148E-03
RMM:   3    -0.240875563952E+02   -0.32285E-07   -0.20151E-07    12   0.364E-03    0.305E-04
RMM:   4    -0.240875564128E+02   -0.17630E-07   -0.77086E-09     9   0.147E-03
  56 F= -.24087556E+02 E0= -.24087556E+02  d E =-.176203E-04
