 vasp.5.4.4.18Apr17-6-g9f103f2a35 (build Mar 16 2019 02:52:56) complex          
  
 executed on             LinuxGNU date 2019.06.23  03:53:55
 running on    1 total cores
 distrk:  each k-point on    1 cores,    1 groups
 distr:  one band on NCORES_PER_BAND=   1 cores,    1 groups


--------------------------------------------------------------------------------------------------------


 INCAR:
 POTCAR:    PAW_PBE H 15Jun2001                   
 POTCAR:    PAW_PBE C 08Apr2002                   
 POTCAR:    PAW_PBE H 15Jun2001                   
   VRHFIN =H: ultrasoft test                                                    
   LEXCH  = PE                                                                  
   EATOM  =    12.4884 eV,    0.9179 Ry                                         
                                                                                
   TITEL  = PAW_PBE H 15Jun2001                                                 
   LULTRA =        F    use ultrasoft PP ?                                      
   IUNSCR =        0    unscreen: 0-lin 1-nonlin 2-no                           
   RPACOR =    0.000    partial core radius                                     
   POMASS =    1.000; ZVAL   =    1.000    mass and valenz                      
   RCORE  =    1.100    outmost cutoff radius                                   
   RWIGS  =    0.700; RWIGS  =    0.370    wigner-seitz radius (au A)           
   ENMAX  =  250.000; ENMIN  =  200.000 eV                                      
   RCLOC  =    0.701    cutoff for local pot                                    
   LCOR   =        T    correct aug charges                                     
   LPAW   =        T    paw PP                                                  
   EAUG   =  400.000                                                            
   RMAX   =    1.123    core radius for proj-oper                               
   RAUG   =    1.200    factor for augmentation sphere                          
   RDEP   =    1.112    radius for radial grids                                 
   RDEPT  =    0.926    core radius for aug-charge                              
                                                                                
   Atomic configuration                                                         
    2 entries                                                                   
     n  l   j            E        occ.                                          
     1  0  0.50        -6.4927   1.0000                                         
     2  1  0.50        -3.4015   0.0000                                         
   Description                                                                  
     l       E           TYP  RCUT    TYP  RCUT                                 
     0     -6.4927494     23  1.100                                             
     0      6.8029130     23  1.100                                             
     1     -4.0817478     23  1.100                                             
  local pseudopotential read in
  atomic valenz-charges read in
  non local Contribution for L=           0  read in
    real space projection operators read in
  non local Contribution for L=           0  read in
    real space projection operators read in
  non local Contribution for L=           1  read in
    real space projection operators read in
    PAW grid and wavefunctions read in
 
   number of l-projection  operators is LMAX  =           3
   number of lm-projection operators is LMMAX =           5
 
 POTCAR:    PAW_PBE C 08Apr2002                   
   VRHFIN =C: s2p2                                                              
   LEXCH  = PE                                                                  
   EATOM  =   147.1560 eV,   10.8157 Ry                                         
                                                                                
   TITEL  = PAW_PBE C 08Apr2002                                                 
   LULTRA =        F    use ultrasoft PP ?                                      
   IUNSCR =        1    unscreen: 0-lin 1-nonlin 2-no                           
   RPACOR =    1.200    partial core radius                                     
   POMASS =   12.011; ZVAL   =    4.000    mass and valenz                      
   RCORE  =    1.500    outmost cutoff radius                                   
   RWIGS  =    1.630; RWIGS  =    0.863    wigner-seitz radius (au A)           
   ENMAX  =  400.000; ENMIN  =  300.000 eV                                      
   ICORE  =        2    local potential                                         
   LCOR   =        T    correct aug charges                                     
   LPAW   =        T    paw PP                                                  
   EAUG   =  644.873                                                            
   DEXC   =    0.000                                                            
   RMAX   =    1.529    core radius for proj-oper                               
   RAUG   =    1.300    factor for augmentation sphere                          
   RDEP   =    1.501    radius for radial grids                                 
   RDEPT  =    1.300    core radius for aug-charge                              
                                                                                
   Atomic configuration                                                         
    4 entries                                                                   
     n  l   j            E        occ.                                          
     1  0  0.50      -273.3789   2.0000                                         
     2  0  0.50       -13.7508   2.0000                                         
     2  1  0.50        -5.2854   2.0000                                         
     3  2  1.50        -5.4423   0.0000                                         
   Description                                                                  
     l       E           TYP  RCUT    TYP  RCUT                                 
     0    -13.7508458     23  1.200                                             
     0     -8.2022199     23  1.200                                             
     1     -5.2854383     23  1.500                                             
     1     34.0145650     23  1.500                                             
     2     -5.4423304      7  1.500                                             
  local pseudopotential read in
  partial core-charges read in
  partial kinetic energy density read in
  atomic valenz-charges read in
  non local Contribution for L=           0  read in
    real space projection operators read in
  non local Contribution for L=           0  read in
    real space projection operators read in
  non local Contribution for L=           1  read in
    real space projection operators read in
  non local Contribution for L=           1  read in
    real space projection operators read in
    PAW grid and wavefunctions read in
 
   number of l-projection  operators is LMAX  =           4
   number of lm-projection operators is LMMAX =           8
 

 ----------------------------------------------------------------------------- 
|                                                                             |
|  ADVICE TO THIS USER RUNNING 'VASP/VAMP'   (HEAR YOUR MASTER'S VOICE ...):  |
|                                                                             |
|      You have a (more or less) 'small supercell' and for smaller cells      |
|      it is recommended  to use the reciprocal-space projection scheme!      |
|      The real space optimization is not  efficient for small cells and it   |
|      is also less accurate ...                                              |
|      Therefore set LREAL=.FALSE. in the  INCAR file                         |
|                                                                             |
 ----------------------------------------------------------------------------- 


 ----------------------------------------------------------------------------- 
|                                                                             |
|           W    W    AA    RRRRR   N    N  II  N    N   GGGG   !!!           |
|           W    W   A  A   R    R  NN   N  II  NN   N  G    G  !!!           |
|           W    W  A    A  R    R  N N  N  II  N N  N  G       !!!           |
|           W WW W  AAAAAA  RRRRR   N  N N  II  N  N N  G  GGG   !            |
|           WW  WW  A    A  R   R   N   NN  II  N   NN  G    G                |
|           W    W  A    A  R    R  N    N  II  N    N   GGGG   !!!           |
|                                                                             |
|     The real-space-projection scheme for the treatment of the nonlocal      |
|     pseudopotentials has been switched on -- but on file POTCAR I have      |
|     not found any entries signalling me that you have ever performed a      |
|     real-space optimization of all nonlocal projectors! BE WARNED that      |
|     a calculation using the real-space-projection scheme together with      |
|     nonlocal projectors which were not real-space-optimized (according      |
|     to the plane-wave-cutoff used in this calculation) might give more      |
|     or less inaccurate results                                              |
|     I hope you know what you are doing                                      |
|                                                                             |
 ----------------------------------------------------------------------------- 

  PAW_PBE H 15Jun2001                   :
 energy of atom  1       EATOM=  -12.4884
 kinetic energy error for atom=    0.0098 (will be added to EATOM!!)
  PAW_PBE C 08Apr2002                   :
 energy of atom  2       EATOM= -147.1560
 kinetic energy error for atom=    0.0288 (will be added to EATOM!!)
 
 
 POSCAR: POSCAR file written by OVITO            
  positions in cartesian coordinates
  No initial velocities read in
 exchange correlation table for  LEXCH =        8
   RHO(1)=    0.500       N(1)  =     2000
   RHO(2)=  100.500       N(2)  =     4000
 


--------------------------------------------------------------------------------------------------------


 ion  position               nearest neighbor table
   1  0.538  0.407  0.361-   5 1.10
   2  0.395  0.480  0.438-   5 1.10
   3  0.552  0.565  0.443-   5 1.10
   4  0.528  0.416  0.539-   5 1.10
   5  0.503  0.467  0.445-   1 1.10   4 1.10   3 1.10   2 1.10
 
  LATTYP: Found a simple cubic cell.
 ALAT       =    10.0000000000
  
  Lattice vectors:
  
 A1 = (  10.0000000000,   0.0000000000,   0.0000000000)
 A2 = (   0.0000000000,  10.0000000000,   0.0000000000)
 A3 = (   0.0000000000,   0.0000000000,  10.0000000000)


Analysis of symmetry for initial positions (statically):
=====================================================================
 Subroutine PRICEL returns:
 Original cell was already a primitive cell.
 

 Routine SETGRP: Setting up the symmetry group for a 
 simple cubic supercell.


 Subroutine GETGRP returns: Found  1 space group operations
 (whereof  1 operations were pure point group operations)
 out of a pool of 48 trial point group operations.


The static configuration has the point symmetry C_1 .


Analysis of symmetry for dynamics (positions and initial velocities):
=====================================================================
 Subroutine PRICEL returns:
 Original cell was already a primitive cell.
 

 Routine SETGRP: Setting up the symmetry group for a 
 simple cubic supercell.


 Subroutine GETGRP returns: Found  1 space group operations
 (whereof  1 operations were pure point group operations)
 out of a pool of 48 trial point group operations.


The dynamic configuration has the point symmetry C_1 .


 Subroutine INISYM returns: Found  1 space group operations
 (whereof  1 operations are pure point group operations),
 and found     1 'primitive' translations

 
 

Automatic generation of k-mesh.
 generate k-points for:    1    1    1
Space group operators:
 irot       det(A)        alpha          n_x          n_y          n_z        tau_x        tau_y        tau_z
    1     1.000000     0.000000     1.000000     0.000000     0.000000     0.000000     0.000000     0.000000
 
 Subroutine IBZKPT returns following result:
 ===========================================
 
 Found      1 irreducible k-points:
 
 Following reciprocal coordinates:
            Coordinates               Weight
  0.000000  0.000000  0.000000      1.000000
 
 Following cartesian coordinates:
            Coordinates               Weight
  0.000000  0.000000  0.000000      1.000000
 


--------------------------------------------------------------------------------------------------------




 Dimension of arrays:
   k-points           NKPTS =      1   k-points in BZ     NKDIM =      1   number of bands    NBANDS=      8
   number of dos      NEDOS =    301   number of ions     NIONS =      5
   non local maximal  LDIM  =      4   non local SUM 2l+1 LMDIM =      8
   total plane-waves  NPLWV = 343000
   max r-space proj   IRMAX =    810   max aug-charges    IRDMAX=   4247
   dimension x,y,z NGX =    70 NGY =   70 NGZ =   70
   dimension x,y,z NGXF=   140 NGYF=  140 NGZF=  140
   support grid    NGXF=   140 NGYF=  140 NGZF=  140
   ions per type =               4   1
   NGX,Y,Z   is equivalent  to a cutoff of  11.64, 11.64, 11.64 a.u.
   NGXF,Y,Z  is equivalent  to a cutoff of  23.27, 23.27, 23.27 a.u.

 SYSTEM =  unknown system                          
 POSCAR =  POSCAR file written by OVITO            

 Startparameter for this run:
   NWRITE =      2    write-flag & timer
   PREC   = a         normal or accurate (medium, high low for compatibility)
   ISTART =      0    job   : 0-new  1-cont  2-samecut
   ICHARG =      2    charge: 1-file 2-atom 10-const
   ISPIN  =      1    spin polarized calculation?
   LNONCOLLINEAR =      F non collinear calculations
   LSORBIT =      F    spin-orbit coupling
   INIWAV =      1    electr: 0-lowe 1-rand  2-diag
   LASPH  =      F    aspherical Exc in radial PAW
   METAGGA=      F    non-selfconsistent MetaGGA calc.

 Electronic Relaxation 1
   ENCUT  =  400.0 eV  29.40 Ry    5.42 a.u.  16.31 16.31 16.31*2*pi/ulx,y,z
   ENINI  =  400.0     initial cutoff
   ENAUG  =  644.9 eV  augmentation charge cutoff
   NELM   =     60;   NELMIN=  4; NELMDL= -5     # of ELM steps 
   EDIFF  = 0.1E-05   stopping-criterion for ELM
   LREAL  =      T    real-space projection
   NLSPLINE    = F    spline interpolate recip. space projectors
   LCOMPAT=      F    compatible to vasp.4.4
   GGA_COMPAT  = T    GGA compatible to vasp.4.4-vasp.4.6
   LMAXPAW     = -100 max onsite density
   LMAXMIX     =    2 max onsite mixed and CHGCAR
   VOSKOWN=      0    Vosko Wilk Nusair interpolation
   ROPT   =    0.00000   0.00000
 Ionic relaxation
   EDIFFG = 0.1E-04   stopping-criterion for IOM
   NSW    =   1000    number of steps for IOM
   NBLOCK =      1;   KBLOCK =   1000    inner block; outer block 
   IBRION =      2    ionic relax: 0-MD 1-quasi-New 2-CG
   NFREE  =      1    steps in history (QN), initial steepest desc. (CG)
   ISIF   =      2    stress and relaxation
   IWAVPR =     11    prediction:  0-non 1-charg 2-wave 3-comb
   ISYM   =      2    0-nonsym 1-usesym 2-fastsym
   LCORR  =      T    Harris-Foulkes like correction to forces

   POTIM  = 0.5000    time-step for ionic-motion
   TEIN   =    0.0    initial temperature
   TEBEG  =    0.0;   TEEND  =   0.0 temperature during run
   SMASS  =  -3.00    Nose mass-parameter (am)
   estimated Nose-frequenzy (Omega)   =  0.10E-29 period in steps =****** mass=  -0.229E-26a.u.
   SCALEE = 1.0000    scale energy and forces
   NPACO  =    256;   APACO  = 16.0  distance and # of slots for P.C.
   PSTRESS=    0.0 pullay stress

  Mass of Ions in am
   POMASS =   1.00 12.01
  Ionic Valenz
   ZVAL   =   1.00  4.00
  Atomic Wigner-Seitz radii
   RWIGS  =  -1.00 -1.00
  virtual crystal weights 
   VCA    =   1.00  1.00
   NELECT =       8.0000    total number of electrons
   NUPDOWN=      -1.0000    fix difference up-down

 DOS related values:
   EMIN   =  10.00;   EMAX   =-10.00  energy-range for DOS
   EFERMI =   0.00
   ISMEAR =     0;   SIGMA  =   0.05  broadening in eV -4-tet -1-fermi 0-gaus

 Electronic relaxation 2 (details)
   IALGO  =     68    algorithm
   LDIAG  =      T    sub-space diagonalisation (order eigenvalues)
   LSUBROT=      F    optimize rotation matrix (better conditioning)
   TURBO    =      0    0=normal 1=particle mesh
   IRESTART =      0    0=no restart 2=restart with 2 vectors
   NREBOOT  =      0    no. of reboots
   NMIN     =      0    reboot dimension
   EREF     =   0.00    reference energy to select bands
   IMIX   =      4    mixing-type and parameters
     AMIX     =   0.40;   BMIX     =  1.00
     AMIX_MAG =   1.60;   BMIX_MAG =  1.00
     AMIN     =   0.10
     WC   =   100.;   INIMIX=   1;  MIXPRE=   1;  MAXMIX= -45

 Intra band minimization:
   WEIMIN = 0.0010     energy-eigenvalue tresh-hold
   EBREAK =  0.31E-07  absolut break condition
   DEPER  =   0.30     relativ break condition  

   TIME   =   0.40     timestep for ELM

  volume/ion in A,a.u.               =     200.00      1349.67
  Fermi-wavevector in a.u.,A,eV,Ry     =   0.327420  0.618734  1.458594  0.107204
  Thomas-Fermi vector in A             =   1.220131
 
 Write flags
   LWAVE        =      F    write WAVECAR
   LDOWNSAMPLE  =      F    k-point downsampling of WAVECAR
   LCHARG       =      F    write CHGCAR
   LVTOT        =      F    write LOCPOT, total local potential
   LVHAR        =      F    write LOCPOT, Hartree potential only
   LELF         =      F    write electronic localiz. function (ELF)
   LORBIT       =      0    0 simple, 1 ext, 2 COOP (PROOUT), +10 PAW based schemes


 Dipole corrections
   LMONO  =      F    monopole corrections only (constant potential shift)
   LDIPOL =      F    correct potential (dipole corrections)
   IDIPOL =      0    1-x, 2-y, 3-z, 4-all directions 
   EPSILON=  1.0000000 bulk dielectric constant

 Exchange correlation treatment:
   GGA     =    --    GGA type
   LEXCH   =     8    internal setting for exchange type
   VOSKOWN=      0    Vosko Wilk Nusair interpolation
   LHFCALC =     F    Hartree Fock is set to
   LHFONE  =     F    Hartree Fock one center treatment
   AEXX    =    0.0000 exact exchange contribution

 Linear response parameters
   LEPSILON=     F    determine dielectric tensor
   LRPA    =     F    only Hartree local field effects (RPA)
   LNABLA  =     F    use nabla operator in PAW spheres
   LVEL    =     F    velocity operator in full k-point grid
   LINTERFAST=   F  fast interpolation
   KINTER  =     0    interpolate to denser k-point grid
   CSHIFT  =0.1000    complex shift for real part using Kramers Kronig
   OMEGAMAX=  -1.0    maximum frequency
   DEG_THRESHOLD= 0.2000000E-02 threshold for treating states as degnerate
   RTIME   =   -0.100 relaxation time in fs
  (WPLASMAI=    0.000 imaginary part of plasma frequency in eV, 0.658/RTIME)
   DFIELD  = 0.0000000 0.0000000 0.0000000 field for delta impulse in time
 
 Orbital magnetization related:
   ORBITALMAG=     F  switch on orbital magnetization
   LCHIMAG   =     F  perturbation theory with respect to B field
   DQ        =  0.001000  dq finite difference perturbation B field
   LLRAUG    =     F  two centre corrections for induced B field



--------------------------------------------------------------------------------------------------------


 conjugate gradient relaxation of ions
 charge density and potential will be updated during run
 non-spin polarized calculation
 RMM-DIIS sequential band-by-band and
  variant of blocked Davidson during initial phase
 perform sub-space diagonalisation
    before iterative eigenvector-optimisation
 modified Broyden-mixing scheme, WC =      100.0
 initial mixing is a Kerker type mixing with AMIX =  0.4000 and BMIX =      1.0000
 Hartree-type preconditioning will be used
 using additional bands            4
 real space projection scheme for non local part
 use partial core corrections
 calculate Harris-corrections to forces 
   (improved forces if not selfconsistent)
 use gradient corrections 
 use of overlap-Matrix (Vanderbilt PP)
 Gauss-broadening in eV      SIGMA  =   0.05


--------------------------------------------------------------------------------------------------------


  energy-cutoff  :      400.00
  volume of cell :     1000.00
      direct lattice vectors                 reciprocal lattice vectors
    10.000000000  0.000000000  0.000000000     0.100000000  0.000000000  0.000000000
     0.000000000 10.000000000  0.000000000     0.000000000  0.100000000  0.000000000
     0.000000000  0.000000000 10.000000000     0.000000000  0.000000000  0.100000000

  length of vectors
    10.000000000 10.000000000 10.000000000     0.100000000  0.100000000  0.100000000


 
 k-points in units of 2pi/SCALE and weight: read from INCAR                         
   0.00000000  0.00000000  0.00000000       1.000
 
 k-points in reciprocal lattice and weights: read from INCAR                         
   0.00000000  0.00000000  0.00000000       1.000
 
 position of ions in fractional coordinates (direct lattice) 
   0.53815436  0.40686078  0.36057303
   0.39453964  0.48032055  0.43846884
   0.55209246  0.56545029  0.44270873
   0.52818532  0.41641479  0.53918266
   0.50325060  0.46725517  0.44523235
 
 position of ions in cartesian coordinates  (Angst):
   5.38154360  4.06860780  3.60573030
   3.94539640  4.80320550  4.38468840
   5.52092460  5.65450290  4.42708730
   5.28185320  4.16414790  5.39182660
   5.03250600  4.67255170  4.45232350
 


--------------------------------------------------------------------------------------------------------


 k-point  1 :   0.0000 0.0000 0.0000  plane waves:   18037

 maximum and minimum number of plane-waves per node :     18037    18037

 maximum number of plane-waves:     18037
 maximum index in each direction: 
   IXMAX=   16   IYMAX=   16   IZMAX=   16
   IXMIN=  -16   IYMIN=  -16   IZMIN=  -16


 serial   3D FFT for wavefunctions
 parallel 3D FFT for charge:
    minimum data exchange during FFTs selected (reduces bandwidth)


 total amount of memory used by VASP MPI-rank0   296224. kBytes
=======================================================================

   base      :      30000. kBytes
   nonlr-proj:        167. kBytes
   fftplans  :      94700. kBytes
   grid      :     169030. kBytes
   one-center:         15. kBytes
   wavefun   :       2312. kBytes
 
     INWAV:  cpu time    0.0000: real time    0.0000
 Broyden mixing: mesh for mixing (old mesh)
   NGX = 33   NGY = 33   NGZ = 33
  (NGX  =140   NGY  =140   NGZ  =140)
  gives a total of  35937 points

 initial charge density was supplied:
 charge density of overlapping atoms calculated
 number of electron       8.0000000 magnetization 
 keeping initial charge density in first step


--------------------------------------------------------------------------------------------------------


 Maximum index for non-local projection operator          739
 Maximum index for augmentation-charges         3932 (set IRDMAX)


--------------------------------------------------------------------------------------------------------


 First call to EWALD:  gamma=   0.177
 Maximum number of real-space cells 3x 3x 3
 Maximum number of reciprocal cells 3x 3x 3

    FEWALD:  cpu time    0.0010: real time    0.0010


----------------------------------------- Iteration    1(   1)  ---------------------------------------


    POTLOK:  cpu time    1.1134: real time    1.1152
    SETDIJ:  cpu time    0.0034: real time    0.0034
     EDDAV:  cpu time    0.0253: real time    0.0254
       DOS:  cpu time    0.0000: real time    0.0000
    --------------------------------------------
      LOOP:  cpu time    1.1441: real time    1.1492

 eigenvalue-minimisations  :    16
 total energy-change (2. order) : 0.5532261E+02  (-0.1621408E+03)
 number of electron       8.0000000 magnetization 
 augmentation part        8.0000000 magnetization 

 Free energy of the ion-electron system (eV)
  ---------------------------------------------------
  alpha Z        PSCENC =         0.24225079
  Ewald energy   TEWEN  =       128.68268725
  -Hartree energ DENC   =      -243.96695109
  -exchange      EXHF   =         0.00000000
  -V(xc)+E(xc)   XCENC  =        22.00907777
  PAW double counting   =       117.05815612     -117.66307307
  entropy T*S    EENTRO =        -0.00000000
  eigenvalues    EBANDS =       -48.08129056
  atomic energy  EATOM  =       197.04175453
  Solvation  Ediel_sol  =         0.00000000
  ---------------------------------------------------
  free energy    TOTEN  =        55.32261174 eV

  energy without entropy =       55.32261174  energy(sigma->0) =       55.32261174


--------------------------------------------------------------------------------------------------------




----------------------------------------- Iteration    1(   2)  ---------------------------------------


     EDDAV:  cpu time    0.0278: real time    0.0278
       DOS:  cpu time    0.0000: real time    0.0000
    --------------------------------------------
      LOOP:  cpu time    0.0286: real time    0.0326

 eigenvalue-minimisations  :    24
 total energy-change (2. order) :-0.6502338E+02  (-0.6502338E+02)
 number of electron       8.0000000 magnetization 
 augmentation part        8.0000000 magnetization 

 Free energy of the ion-electron system (eV)
  ---------------------------------------------------
  alpha Z        PSCENC =         0.24225079
  Ewald energy   TEWEN  =       128.68268725
  -Hartree energ DENC   =      -243.96695109
  -exchange      EXHF   =         0.00000000
  -V(xc)+E(xc)   XCENC  =        22.00907777
  PAW double counting   =       117.05815612     -117.66307307
  entropy T*S    EENTRO =        -0.00000000
  eigenvalues    EBANDS =      -113.10466909
  atomic energy  EATOM  =       197.04175453
  Solvation  Ediel_sol  =         0.00000000
  ---------------------------------------------------
  free energy    TOTEN  =        -9.70076679 eV

  energy without entropy =       -9.70076679  energy(sigma->0) =       -9.70076679


--------------------------------------------------------------------------------------------------------




----------------------------------------- Iteration    1(   3)  ---------------------------------------


     EDDAV:  cpu time    0.0290: real time    0.0290
       DOS:  cpu time    0.0000: real time    0.0000
    --------------------------------------------
      LOOP:  cpu time    0.0298: real time    0.0344

 eigenvalue-minimisations  :    16
 total energy-change (2. order) :-0.1682440E+02  (-0.1682440E+02)
 number of electron       8.0000000 magnetization 
 augmentation part        8.0000000 magnetization 

 Free energy of the ion-electron system (eV)
  ---------------------------------------------------
  alpha Z        PSCENC =         0.24225079
  Ewald energy   TEWEN  =       128.68268725
  -Hartree energ DENC   =      -243.96695109
  -exchange      EXHF   =         0.00000000
  -V(xc)+E(xc)   XCENC  =        22.00907777
  PAW double counting   =       117.05815612     -117.66307307
  entropy T*S    EENTRO =        -0.00000000
  eigenvalues    EBANDS =      -129.92906939
  atomic energy  EATOM  =       197.04175453
  Solvation  Ediel_sol  =         0.00000000
  ---------------------------------------------------
  free energy    TOTEN  =       -26.52516709 eV

  energy without entropy =      -26.52516709  energy(sigma->0) =      -26.52516709


--------------------------------------------------------------------------------------------------------




----------------------------------------- Iteration    1(   4)  ---------------------------------------


     EDDAV:  cpu time    0.0251: real time    0.0251
       DOS:  cpu time    0.0000: real time    0.0000
    --------------------------------------------
      LOOP:  cpu time    0.0254: real time    0.0291

 eigenvalue-minimisations  :    16
 total energy-change (2. order) :-0.1011358E+01  (-0.1011358E+01)
 number of electron       8.0000000 magnetization 
 augmentation part        8.0000000 magnetization 

 Free energy of the ion-electron system (eV)
  ---------------------------------------------------
  alpha Z        PSCENC =         0.24225079
  Ewald energy   TEWEN  =       128.68268725
  -Hartree energ DENC   =      -243.96695109
  -exchange      EXHF   =         0.00000000
  -V(xc)+E(xc)   XCENC  =        22.00907777
  PAW double counting   =       117.05815612     -117.66307307
  entropy T*S    EENTRO =        -0.00000000
  eigenvalues    EBANDS =      -130.94042721
  atomic energy  EATOM  =       197.04175453
  Solvation  Ediel_sol  =         0.00000000
  ---------------------------------------------------
  free energy    TOTEN  =       -27.53652491 eV

  energy without entropy =      -27.53652491  energy(sigma->0) =      -27.53652491


--------------------------------------------------------------------------------------------------------




----------------------------------------- Iteration    1(   5)  ---------------------------------------


     EDDAV:  cpu time    0.0345: real time    0.0345
       DOS:  cpu time    0.0000: real time    0.0000
    CHARGE:  cpu time    0.0758: real time    0.0759
    MIXING:  cpu time    0.0290: real time    0.0291
    --------------------------------------------
      LOOP:  cpu time    0.1399: real time    0.1445

 eigenvalue-minimisations  :    32
 total energy-change (2. order) :-0.3192473E-01  (-0.3192473E-01)
 number of electron       8.0000002 magnetization 
 augmentation part        0.2246029 magnetization 

 Broyden mixing:
  rms(total) = 0.87133E+00    rms(broyden)= 0.87114E+00
  rms(prec ) = 0.12429E+01
  weight for this iteration     100.00

 Free energy of the ion-electron system (eV)
  ---------------------------------------------------
  alpha Z        PSCENC =         0.24225079
  Ewald energy   TEWEN  =       128.68268725
  -Hartree energ DENC   =      -243.96695109
  -exchange      EXHF   =         0.00000000
  -V(xc)+E(xc)   XCENC  =        22.00907777
  PAW double counting   =       117.05815612     -117.66307307
  entropy T*S    EENTRO =        -0.00000000
  eigenvalues    EBANDS =      -130.97235194
  atomic energy  EATOM  =       197.04175453
  Solvation  Ediel_sol  =         0.00000000
  ---------------------------------------------------
  free energy    TOTEN  =       -27.56844964 eV

  energy without entropy =      -27.56844964  energy(sigma->0) =      -27.56844964


--------------------------------------------------------------------------------------------------------




----------------------------------------- Iteration    1(   6)  ---------------------------------------


    POTLOK:  cpu time    1.1165: real time    1.1183
    SETDIJ:  cpu time    0.0032: real time    0.0032
    EDDIAG:  cpu time    0.0134: real time    0.0134
  RMM-DIIS:  cpu time    0.0193: real time    0.0193
    ORTHCH:  cpu time    0.0054: real time    0.0054
       DOS:  cpu time    0.0000: real time    0.0000
    CHARGE:  cpu time    0.0690: real time    0.0691
    MIXING:  cpu time    0.0289: real time    0.0289
    --------------------------------------------
      LOOP:  cpu time    1.2565: real time    1.2621

 eigenvalue-minimisations  :    16
 total energy-change (2. order) : 0.2889990E+01  (-0.5048563E+00)
 number of electron       8.0000001 magnetization 
 augmentation part        0.1977147 magnetization 

 Broyden mixing:
  rms(total) = 0.42763E+00    rms(broyden)= 0.42754E+00
  rms(prec ) = 0.55852E+00
  weight for this iteration     100.00

 eigenvalues of (default mixing * dielectric matrix)
  average eigenvalue GAMMA=   1.3014
  1.3014

 Free energy of the ion-electron system (eV)
  ---------------------------------------------------
  alpha Z        PSCENC =         0.24225079
  Ewald energy   TEWEN  =       128.68268725
  -Hartree energ DENC   =      -263.69054067
  -exchange      EXHF   =         0.00000000
  -V(xc)+E(xc)   XCENC  =        23.20616699
  PAW double counting   =       235.92500204     -236.70464844
  entropy T*S    EENTRO =        -0.00000000
  eigenvalues    EBANDS =      -109.38113165
  atomic energy  EATOM  =       197.04175453
  Solvation  Ediel_sol  =         0.00000000
  ---------------------------------------------------
  free energy    TOTEN  =       -24.67845916 eV

  energy without entropy =      -24.67845916  energy(sigma->0) =      -24.67845916


--------------------------------------------------------------------------------------------------------




----------------------------------------- Iteration    1(   7)  ---------------------------------------


    POTLOK:  cpu time    1.1072: real time    1.1089
    SETDIJ:  cpu time    0.0032: real time    0.0032
    EDDIAG:  cpu time    0.0132: real time    0.0133
  RMM-DIIS:  cpu time    0.0191: real time    0.0191
    ORTHCH:  cpu time    0.0054: real time    0.0054
       DOS:  cpu time    0.0000: real time    0.0000
    CHARGE:  cpu time    0.0690: real time    0.0691
    MIXING:  cpu time    0.0293: real time    0.0294
    --------------------------------------------
      LOOP:  cpu time    1.2473: real time    1.2532

 eigenvalue-minimisations  :    16
 total energy-change (2. order) : 0.4948127E+00  (-0.1079040E+00)
 number of electron       8.0000001 magnetization 
 augmentation part        0.1872569 magnetization 

 Broyden mixing:
  rms(total) = 0.22586E+00    rms(broyden)= 0.22581E+00
  rms(prec ) = 0.27527E+00
  weight for this iteration     100.00

 eigenvalues of (default mixing * dielectric matrix)
  average eigenvalue GAMMA=   1.8317
  1.4475  2.2160

 Free energy of the ion-electron system (eV)
  ---------------------------------------------------
  alpha Z        PSCENC =         0.24225079
  Ewald energy   TEWEN  =       128.68268725
  -Hartree energ DENC   =      -275.28767254
  -exchange      EXHF   =         0.00000000
  -V(xc)+E(xc)   XCENC  =        24.06042421
  PAW double counting   =       358.45918037     -359.27749764
  entropy T*S    EENTRO =        -0.00000000
  eigenvalues    EBANDS =       -98.10477346
  atomic energy  EATOM  =       197.04175453
  Solvation  Ediel_sol  =         0.00000000
  ---------------------------------------------------
  free energy    TOTEN  =       -24.18364649 eV

  energy without entropy =      -24.18364649  energy(sigma->0) =      -24.18364649


--------------------------------------------------------------------------------------------------------




----------------------------------------- Iteration    1(   8)  ---------------------------------------


    POTLOK:  cpu time    1.1142: real time    1.1159
    SETDIJ:  cpu time    0.0032: real time    0.0032
    EDDIAG:  cpu time    0.0139: real time    0.0140
  RMM-DIIS:  cpu time    0.0195: real time    0.0195
    ORTHCH:  cpu time    0.0055: real time    0.0055
       DOS:  cpu time    0.0000: real time    0.0000
    CHARGE:  cpu time    0.0691: real time    0.0692
    MIXING:  cpu time    0.0303: real time    0.0304
    --------------------------------------------
      LOOP:  cpu time    1.2565: real time    1.2625

 eigenvalue-minimisations  :    16
 total energy-change (2. order) : 0.1465404E+00  (-0.1667988E-01)
 number of electron       8.0000001 magnetization 
 augmentation part        0.1860520 magnetization 

 Broyden mixing:
  rms(total) = 0.22799E-01    rms(broyden)= 0.22777E-01
  rms(prec ) = 0.53618E-01
  weight for this iteration     100.00

 eigenvalues of (default mixing * dielectric matrix)
  average eigenvalue GAMMA=   1.5531
  2.2485  1.0217  1.3892

 Free energy of the ion-electron system (eV)
  ---------------------------------------------------
  alpha Z        PSCENC =         0.24225079
  Ewald energy   TEWEN  =       128.68268725
  -Hartree energ DENC   =      -280.74155398
  -exchange      EXHF   =         0.00000000
  -V(xc)+E(xc)   XCENC  =        24.59895448
  PAW double counting   =       462.90521215     -463.69247062
  entropy T*S    EENTRO =        -0.00000000
  eigenvalues    EBANDS =       -93.07394063
  atomic energy  EATOM  =       197.04175453
  Solvation  Ediel_sol  =         0.00000000
  ---------------------------------------------------
  free energy    TOTEN  =       -24.03710604 eV

  energy without entropy =      -24.03710604  energy(sigma->0) =      -24.03710604


--------------------------------------------------------------------------------------------------------




----------------------------------------- Iteration    1(   9)  ---------------------------------------


    POTLOK:  cpu time    1.1139: real time    1.1158
    SETDIJ:  cpu time    0.0032: real time    0.0032
    EDDIAG:  cpu time    0.0137: real time    0.0138
  RMM-DIIS:  cpu time    0.0195: real time    0.0195
    ORTHCH:  cpu time    0.0055: real time    0.0056
       DOS:  cpu time    0.0000: real time    0.0000
    CHARGE:  cpu time    0.0691: real time    0.0692
    MIXING:  cpu time    0.0310: real time    0.0311
    --------------------------------------------
      LOOP:  cpu time    1.2569: real time    1.2627

 eigenvalue-minimisations  :    16
 total energy-change (2. order) : 0.6148546E-02  (-0.1177178E-02)
 number of electron       8.0000001 magnetization 
 augmentation part        0.1854322 magnetization 

 Broyden mixing:
  rms(total) = 0.19605E-01    rms(broyden)= 0.19602E-01
  rms(prec ) = 0.40444E-01
  weight for this iteration     100.00

 eigenvalues of (default mixing * dielectric matrix)
  average eigenvalue GAMMA=   2.0605
  2.9322  2.9322  1.0189  1.3587

 Free energy of the ion-electron system (eV)
  ---------------------------------------------------
  alpha Z        PSCENC =         0.24225079
  Ewald energy   TEWEN  =       128.68268725
  -Hartree energ DENC   =      -282.09709209
  -exchange      EXHF   =         0.00000000
  -V(xc)+E(xc)   XCENC  =        24.67418194
  PAW double counting   =       466.93823904     -467.72836744
  entropy T*S    EENTRO =        -0.00000000
  eigenvalues    EBANDS =       -91.78461152
  atomic energy  EATOM  =       197.04175453
  Solvation  Ediel_sol  =         0.00000000
  ---------------------------------------------------
  free energy    TOTEN  =       -24.03095749 eV

  energy without entropy =      -24.03095749  energy(sigma->0) =      -24.03095749


--------------------------------------------------------------------------------------------------------




----------------------------------------- Iteration    1(  10)  ---------------------------------------


    POTLOK:  cpu time    1.0720: real time    1.0737
    SETDIJ:  cpu time    0.0033: real time    0.0033
    EDDIAG:  cpu time    0.0140: real time    0.0140
  RMM-DIIS:  cpu time    0.0195: real time    0.0196
    ORTHCH:  cpu time    0.0056: real time    0.0056
       DOS:  cpu time    0.0000: real time    0.0000
    CHARGE:  cpu time    0.0690: real time    0.0691
    MIXING:  cpu time    0.0322: real time    0.0323
    --------------------------------------------
      LOOP:  cpu time    1.2165: real time    1.2239

 eigenvalue-minimisations  :    16
 total energy-change (2. order) : 0.5992431E-02  (-0.2200126E-02)
 number of electron       8.0000001 magnetization 
 augmentation part        0.1844518 magnetization 

 Broyden mixing:
  rms(total) = 0.25934E-01    rms(broyden)= 0.25932E-01
  rms(prec ) = 0.33724E-01
  weight for this iteration     100.00

 eigenvalues of (default mixing * dielectric matrix)
  average eigenvalue GAMMA=   1.8013
  3.0605  2.3362  0.9990  1.3054  1.3054

 Free energy of the ion-electron system (eV)
  ---------------------------------------------------
  alpha Z        PSCENC =         0.24225079
  Ewald energy   TEWEN  =       128.68268725
  -Hartree energ DENC   =      -284.19116059
  -exchange      EXHF   =         0.00000000
  -V(xc)+E(xc)   XCENC  =        24.73924217
  PAW double counting   =       451.94941266     -452.74265931
  entropy T*S    EENTRO =        -0.00000000
  eigenvalues    EBANDS =       -89.74649256
  atomic energy  EATOM  =       197.04175453
  Solvation  Ediel_sol  =         0.00000000
  ---------------------------------------------------
  free energy    TOTEN  =       -24.02496506 eV

  energy without entropy =      -24.02496506  energy(sigma->0) =      -24.02496506


--------------------------------------------------------------------------------------------------------




----------------------------------------- Iteration    1(  11)  ---------------------------------------


    POTLOK:  cpu time    1.0685: real time    1.0703
    SETDIJ:  cpu time    0.0032: real time    0.0032
    EDDIAG:  cpu time    0.0144: real time    0.0144
  RMM-DIIS:  cpu time    0.0196: real time    0.0197
    ORTHCH:  cpu time    0.0055: real time    0.0056
       DOS:  cpu time    0.0000: real time    0.0000
    CHARGE:  cpu time    0.0701: real time    0.0702
    MIXING:  cpu time    0.0324: real time    0.0325
    --------------------------------------------
      LOOP:  cpu time    1.2146: real time    1.2248

 eigenvalue-minimisations  :    16
 total energy-change (2. order) :-0.1327059E-02  (-0.1028814E-02)
 number of electron       8.0000001 magnetization 
 augmentation part        0.1848893 magnetization 

 Broyden mixing:
  rms(total) = 0.12637E-01    rms(broyden)= 0.12634E-01
  rms(prec ) = 0.18039E-01
  weight for this iteration     100.00

 eigenvalues of (default mixing * dielectric matrix)
  average eigenvalue GAMMA=   2.2831
  4.8768  3.0740  2.4662  1.2796  1.0009  1.0009

 Free energy of the ion-electron system (eV)
  ---------------------------------------------------
  alpha Z        PSCENC =         0.24225079
  Ewald energy   TEWEN  =       128.68268725
  -Hartree energ DENC   =      -284.12218971
  -exchange      EXHF   =         0.00000000
  -V(xc)+E(xc)   XCENC  =        24.75660216
  PAW double counting   =       461.31166074     -462.09679074
  entropy T*S    EENTRO =        -0.00000000
  eigenvalues    EBANDS =       -89.84226714
  atomic energy  EATOM  =       197.04175453
  Solvation  Ediel_sol  =         0.00000000
  ---------------------------------------------------
  free energy    TOTEN  =       -24.02629212 eV

  energy without entropy =      -24.02629212  energy(sigma->0) =      -24.02629212


--------------------------------------------------------------------------------------------------------




----------------------------------------- Iteration    1(  12)  ---------------------------------------


    POTLOK:  cpu time    1.0053: real time    1.0069
    SETDIJ:  cpu time    0.0032: real time    0.0032
    EDDIAG:  cpu time    0.0139: real time    0.0139
  RMM-DIIS:  cpu time    0.0195: real time    0.0196
    ORTHCH:  cpu time    0.0056: real time    0.0056
       DOS:  cpu time    0.0000: real time    0.0000
    CHARGE:  cpu time    0.0691: real time    0.0692
    MIXING:  cpu time    0.0336: real time    0.0337
    --------------------------------------------
      LOOP:  cpu time    1.1511: real time    1.1599

 eigenvalue-minimisations  :    16
 total energy-change (2. order) :-0.8857873E-02  (-0.2070428E-03)
 number of electron       8.0000001 magnetization 
 augmentation part        0.1849910 magnetization 

 Broyden mixing:
  rms(total) = 0.11217E-01    rms(broyden)= 0.11217E-01
  rms(prec ) = 0.14814E-01
  weight for this iteration     100.00

 eigenvalues of (default mixing * dielectric matrix)
  average eigenvalue GAMMA=   2.0273
  4.9232  2.9389  2.4153  1.2169  1.0212  1.0212  0.6540

 Free energy of the ion-electron system (eV)
  ---------------------------------------------------
  alpha Z        PSCENC =         0.24225079
  Ewald energy   TEWEN  =       128.68268725
  -Hartree energ DENC   =      -284.37929542
  -exchange      EXHF   =         0.00000000
  -V(xc)+E(xc)   XCENC  =        24.74844025
  PAW double counting   =       456.98950117     -457.77495179
  entropy T*S    EENTRO =        -0.00000000
  eigenvalues    EBANDS =       -89.58553677
  atomic energy  EATOM  =       197.04175453
  Solvation  Ediel_sol  =         0.00000000
  ---------------------------------------------------
  free energy    TOTEN  =       -24.03514999 eV

  energy without entropy =      -24.03514999  energy(sigma->0) =      -24.03514999


--------------------------------------------------------------------------------------------------------




----------------------------------------- Iteration    1(  13)  ---------------------------------------


    POTLOK:  cpu time    1.0042: real time    1.0058
    SETDIJ:  cpu time    0.0032: real time    0.0032
    EDDIAG:  cpu time    0.0137: real time    0.0137
  RMM-DIIS:  cpu time    0.0195: real time    0.0195
    ORTHCH:  cpu time    0.0055: real time    0.0055
       DOS:  cpu time    0.0000: real time    0.0000
    CHARGE:  cpu time    0.0690: real time    0.0691
    MIXING:  cpu time    0.0339: real time    0.0340
    --------------------------------------------
      LOOP:  cpu time    1.1498: real time    1.1561

 eigenvalue-minimisations  :    16
 total energy-change (2. order) :-0.5067886E-03  (-0.1243751E-03)
 number of electron       8.0000001 magnetization 
 augmentation part        0.1847194 magnetization 

 Broyden mixing:
  rms(total) = 0.24614E-02    rms(broyden)= 0.24601E-02
  rms(prec ) = 0.44175E-02
  weight for this iteration     100.00

 eigenvalues of (default mixing * dielectric matrix)
  average eigenvalue GAMMA=   2.4980
  6.2590  4.5179  2.4419  2.4419  1.2086  1.2086  0.9801  0.9261

 Free energy of the ion-electron system (eV)
  ---------------------------------------------------
  alpha Z        PSCENC =         0.24225079
  Ewald energy   TEWEN  =       128.68268725
  -Hartree energ DENC   =      -284.52493219
  -exchange      EXHF   =         0.00000000
  -V(xc)+E(xc)   XCENC  =        24.75044545
  PAW double counting   =       456.14119010     -456.92906181
  entropy T*S    EENTRO =        -0.00000000
  eigenvalues    EBANDS =       -89.43999091
  atomic energy  EATOM  =       197.04175453
  Solvation  Ediel_sol  =         0.00000000
  ---------------------------------------------------
  free energy    TOTEN  =       -24.03565678 eV

  energy without entropy =      -24.03565678  energy(sigma->0) =      -24.03565678


--------------------------------------------------------------------------------------------------------




----------------------------------------- Iteration    1(  14)  ---------------------------------------


    POTLOK:  cpu time    0.9895: real time    0.9912
    SETDIJ:  cpu time    0.0032: real time    0.0032
    EDDIAG:  cpu time    0.0138: real time    0.0138
  RMM-DIIS:  cpu time    0.0195: real time    0.0195
    ORTHCH:  cpu time    0.0056: real time    0.0056
       DOS:  cpu time    0.0000: real time    0.0000
    CHARGE:  cpu time    0.0690: real time    0.0691
    MIXING:  cpu time    0.0348: real time    0.0349
    --------------------------------------------
      LOOP:  cpu time    1.1363: real time    1.1423

 eigenvalue-minimisations  :    16
 total energy-change (2. order) :-0.3014569E-02  (-0.7124687E-04)
 number of electron       8.0000001 magnetization 
 augmentation part        0.1846899 magnetization 

 Broyden mixing:
  rms(total) = 0.10575E-02    rms(broyden)= 0.10565E-02
  rms(prec ) = 0.17956E-02
  weight for this iteration     100.00

 eigenvalues of (default mixing * dielectric matrix)
  average eigenvalue GAMMA=   2.3220
  6.5079  4.2478  2.6138  2.4088  1.1443  1.1443  1.0292  0.9007  0.9007

 Free energy of the ion-electron system (eV)
  ---------------------------------------------------
  alpha Z        PSCENC =         0.24225079
  Ewald energy   TEWEN  =       128.68268725
  -Hartree energ DENC   =      -284.42723916
  -exchange      EXHF   =         0.00000000
  -V(xc)+E(xc)   XCENC  =        24.73723459
  PAW double counting   =       456.35997352     -457.14778944
  entropy T*S    EENTRO =        -0.00000000
  eigenvalues    EBANDS =       -89.52754343
  atomic energy  EATOM  =       197.04175453
  Solvation  Ediel_sol  =         0.00000000
  ---------------------------------------------------
  free energy    TOTEN  =       -24.03867135 eV

  energy without entropy =      -24.03867135  energy(sigma->0) =      -24.03867135


--------------------------------------------------------------------------------------------------------




----------------------------------------- Iteration    1(  15)  ---------------------------------------


    POTLOK:  cpu time    0.9913: real time    0.9928
    SETDIJ:  cpu time    0.0033: real time    0.0033
    EDDIAG:  cpu time    0.0139: real time    0.0140
  RMM-DIIS:  cpu time    0.0196: real time    0.0196
    ORTHCH:  cpu time    0.0056: real time    0.0056
       DOS:  cpu time    0.0000: real time    0.0000
    CHARGE:  cpu time    0.0691: real time    0.0692
    MIXING:  cpu time    0.0363: real time    0.0364
    --------------------------------------------
      LOOP:  cpu time    1.1401: real time    1.1457

 eigenvalue-minimisations  :    16
 total energy-change (2. order) :-0.1408685E-03  (-0.1754260E-04)
 number of electron       8.0000001 magnetization 
 augmentation part        0.1845881 magnetization 

 Broyden mixing:
  rms(total) = 0.24815E-02    rms(broyden)= 0.24811E-02
  rms(prec ) = 0.32793E-02
  weight for this iteration     100.00

 eigenvalues of (default mixing * dielectric matrix)
  average eigenvalue GAMMA=   2.6520
  7.8596  4.8116  3.7153  2.5263  2.4016  1.2062  1.2062  0.9862  0.9035  0.9035

 Free energy of the ion-electron system (eV)
  ---------------------------------------------------
  alpha Z        PSCENC =         0.24225079
  Ewald energy   TEWEN  =       128.68268725
  -Hartree energ DENC   =      -284.52436689
  -exchange      EXHF   =         0.00000000
  -V(xc)+E(xc)   XCENC  =        24.74243243
  PAW double counting   =       456.43515236     -457.22351398
  entropy T*S    EENTRO =        -0.00000000
  eigenvalues    EBANDS =       -89.43520871
  atomic energy  EATOM  =       197.04175453
  Solvation  Ediel_sol  =         0.00000000
  ---------------------------------------------------
  free energy    TOTEN  =       -24.03881222 eV

  energy without entropy =      -24.03881222  energy(sigma->0) =      -24.03881222


--------------------------------------------------------------------------------------------------------




----------------------------------------- Iteration    1(  16)  ---------------------------------------


    POTLOK:  cpu time    1.0045: real time    1.0062
    SETDIJ:  cpu time    0.0032: real time    0.0033
    EDDIAG:  cpu time    0.0138: real time    0.0138
  RMM-DIIS:  cpu time    0.0199: real time    0.0199
    ORTHCH:  cpu time    0.0055: real time    0.0055
       DOS:  cpu time    0.0000: real time    0.0000
    CHARGE:  cpu time    0.0691: real time    0.0692
    MIXING:  cpu time    0.0369: real time    0.0369
    --------------------------------------------
      LOOP:  cpu time    1.1537: real time    1.1593

 eigenvalue-minimisations  :    16
 total energy-change (2. order) :-0.2404523E-03  (-0.1243851E-04)
 number of electron       8.0000001 magnetization 
 augmentation part        0.1846487 magnetization 

 Broyden mixing:
  rms(total) = 0.46126E-03    rms(broyden)= 0.46079E-03
  rms(prec ) = 0.60188E-03
  weight for this iteration     100.00

 eigenvalues of (default mixing * dielectric matrix)
  average eigenvalue GAMMA=   2.5243
  8.0015  4.8863  3.6389  2.5002  2.3213  1.2048  1.2048  1.0471  1.0471  0.9978
  0.9180

 Free energy of the ion-electron system (eV)
  ---------------------------------------------------
  alpha Z        PSCENC =         0.24225079
  Ewald energy   TEWEN  =       128.68268725
  -Hartree energ DENC   =      -284.48727727
  -exchange      EXHF   =         0.00000000
  -V(xc)+E(xc)   XCENC  =        24.74196311
  PAW double counting   =       456.46275743     -457.25041789
  entropy T*S    EENTRO =        -0.00000000
  eigenvalues    EBANDS =       -89.47277062
  atomic energy  EATOM  =       197.04175453
  Solvation  Ediel_sol  =         0.00000000
  ---------------------------------------------------
  free energy    TOTEN  =       -24.03905267 eV

  energy without entropy =      -24.03905267  energy(sigma->0) =      -24.03905267


--------------------------------------------------------------------------------------------------------




----------------------------------------- Iteration    1(  17)  ---------------------------------------


    POTLOK:  cpu time    1.0235: real time    1.0252
    SETDIJ:  cpu time    0.0033: real time    0.0033
    EDDIAG:  cpu time    0.0144: real time    0.0144
  RMM-DIIS:  cpu time    0.0195: real time    0.0195
    ORTHCH:  cpu time    0.0055: real time    0.0055
       DOS:  cpu time    0.0000: real time    0.0000
    CHARGE:  cpu time    0.0702: real time    0.0703
    MIXING:  cpu time    0.0376: real time    0.0377
    --------------------------------------------
      LOOP:  cpu time    1.1748: real time    1.1806

 eigenvalue-minimisations  :    15
 total energy-change (2. order) :-0.2768662E-04  (-0.3922549E-06)
 number of electron       8.0000001 magnetization 
 augmentation part        0.1846508 magnetization 

 Broyden mixing:
  rms(total) = 0.24929E-03    rms(broyden)= 0.24919E-03
  rms(prec ) = 0.33016E-03
  weight for this iteration     100.00

 eigenvalues of (default mixing * dielectric matrix)
  average eigenvalue GAMMA=   2.5971
  8.4014  5.1976  3.9595  2.7052  2.5105  2.0208  1.2376  1.2376  0.9430  0.9430
  0.9758  1.0339

 Free energy of the ion-electron system (eV)
  ---------------------------------------------------
  alpha Z        PSCENC =         0.24225079
  Ewald energy   TEWEN  =       128.68268725
  -Hartree energ DENC   =      -284.50090459
  -exchange      EXHF   =         0.00000000
  -V(xc)+E(xc)   XCENC  =        24.74238432
  PAW double counting   =       456.42128871     -457.20902489
  entropy T*S    EENTRO =        -0.00000000
  eigenvalues    EBANDS =       -89.45951647
  atomic energy  EATOM  =       197.04175453
  Solvation  Ediel_sol  =         0.00000000
  ---------------------------------------------------
  free energy    TOTEN  =       -24.03908036 eV

  energy without entropy =      -24.03908036  energy(sigma->0) =      -24.03908036


--------------------------------------------------------------------------------------------------------




----------------------------------------- Iteration    1(  18)  ---------------------------------------


    POTLOK:  cpu time    1.0521: real time    1.0539
    SETDIJ:  cpu time    0.0033: real time    0.0033
    EDDIAG:  cpu time    0.0137: real time    0.0137
  RMM-DIIS:  cpu time    0.0188: real time    0.0188
    ORTHCH:  cpu time    0.0056: real time    0.0055
       DOS:  cpu time    0.0000: real time    0.0000
    CHARGE:  cpu time    0.0692: real time    0.0693
    MIXING:  cpu time    0.0386: real time    0.0386
    --------------------------------------------
      LOOP:  cpu time    1.2021: real time    1.2107

 eigenvalue-minimisations  :    14
 total energy-change (2. order) :-0.1392926E-04  (-0.2442133E-06)
 number of electron       8.0000001 magnetization 
 augmentation part        0.1846441 magnetization 

 Broyden mixing:
  rms(total) = 0.14363E-03    rms(broyden)= 0.14361E-03
  rms(prec ) = 0.20096E-03
  weight for this iteration     100.00

 eigenvalues of (default mixing * dielectric matrix)
  average eigenvalue GAMMA=   2.4602
  8.4021  5.2537  3.8772  2.6439  2.5032  2.0081  1.2586  1.2586  1.0099  0.9564
  0.9564  0.9272  0.9272

 Free energy of the ion-electron system (eV)
  ---------------------------------------------------
  alpha Z        PSCENC =         0.24225079
  Ewald energy   TEWEN  =       128.68268725
  -Hartree energ DENC   =      -284.50226074
  -exchange      EXHF   =         0.00000000
  -V(xc)+E(xc)   XCENC  =        24.74209939
  PAW double counting   =       456.45385617     -457.24169551
  entropy T*S    EENTRO =        -0.00000000
  eigenvalues    EBANDS =       -89.45778617
  atomic energy  EATOM  =       197.04175453
  Solvation  Ediel_sol  =         0.00000000
  ---------------------------------------------------
  free energy    TOTEN  =       -24.03909429 eV

  energy without entropy =      -24.03909429  energy(sigma->0) =      -24.03909429


--------------------------------------------------------------------------------------------------------




----------------------------------------- Iteration    1(  19)  ---------------------------------------


    POTLOK:  cpu time    1.0564: real time    1.0581
    SETDIJ:  cpu time    0.0033: real time    0.0033
    EDDIAG:  cpu time    0.0138: real time    0.0138
  RMM-DIIS:  cpu time    0.0171: real time    0.0170
    ORTHCH:  cpu time    0.0056: real time    0.0056
       DOS:  cpu time    0.0000: real time    0.0000
    --------------------------------------------
      LOOP:  cpu time    1.0969: real time    1.1064

 eigenvalue-minimisations  :    12
 total energy-change (2. order) :-0.8778802E-06  (-0.4930341E-07)
 number of electron       8.0000001 magnetization 
 augmentation part        0.1846441 magnetization 

 Free energy of the ion-electron system (eV)
  ---------------------------------------------------
  alpha Z        PSCENC =         0.24225079
  Ewald energy   TEWEN  =       128.68268725
  -Hartree energ DENC   =      -284.49655851
  -exchange      EXHF   =         0.00000000
  -V(xc)+E(xc)   XCENC  =        24.74184692
  PAW double counting   =       456.44490418     -457.23268622
  entropy T*S    EENTRO =        -0.00000000
  eigenvalues    EBANDS =       -89.46329411
  atomic energy  EATOM  =       197.04175453
  Solvation  Ediel_sol  =         0.00000000
  ---------------------------------------------------
  free energy    TOTEN  =       -24.03909517 eV

  energy without entropy =      -24.03909517  energy(sigma->0) =      -24.03909517


--------------------------------------------------------------------------------------------------------




 average (electrostatic) potential at core
  the test charge radii are     0.5201  0.6991
  (the norm of the test charge is              1.0000)
       1 -41.4883       2 -41.4927       3 -41.4848       4 -41.4847       5 -57.9582
 
 
 
 E-fermi :  -9.0283     XC(G=0):  -0.7029     alpha+bet : -0.2107


 k-point     1 :       0.0000    0.0000    0.0000
  band No.  band energies     occupation 
      1     -16.8835      2.00000
      2      -9.2861      2.00000
      3      -9.2854      2.00000
      4      -9.2766      2.00000
      5      -0.5325      0.00000
      6       1.0371      0.00000
      7       1.0470      0.00000
      8       1.0551      0.00000


--------------------------------------------------------------------------------------------------------


 soft charge-density along one line, spin component           1
         0         1         2         3         4         5         6         7         8         9
 total charge-density along one line
 
 pseudopotential strength for first ion, spin component:           1
 -2.341  -4.033  -0.001  -0.002   0.001
 -4.033  -6.864  -0.003  -0.004   0.002
 -0.001  -0.003  -0.337   0.002  -0.001
 -0.002  -0.004   0.002  -0.335  -0.001
  0.001   0.002  -0.001  -0.001  -0.338
 total augmentation occupancy for first ion, spin component:           1
  3.600  -0.658   0.237   0.381  -0.174
 -0.658   0.134  -0.045  -0.071   0.032
  0.237  -0.045   0.021   0.021  -0.010
  0.381  -0.071   0.021   0.045  -0.017
 -0.174   0.032  -0.010  -0.017   0.016


------------------------ aborting loop because EDIFF is reached ----------------------------------------


    CHARGE:  cpu time    0.0701: real time    0.0703
    FORLOC:  cpu time    0.0968: real time    0.0969
    FORNL :  cpu time    0.0125: real time    0.0125
    STRESS:  cpu time    0.1005: real time    0.1007
    FORCOR:  cpu time    1.0758: real time    1.0777
    FORHAR:  cpu time    0.3262: real time    0.3266
    MIXING:  cpu time    0.0410: real time    0.0411
    OFIELD:  cpu time    0.0000: real time    0.0000

  FORCE on cell =-STRESS in cart. coord.  units (eV):
  Direction    XX          YY          ZZ          XY          YZ          ZX
  --------------------------------------------------------------------------------------
  Alpha Z     0.24225     0.24225     0.24225
  Ewald      42.88201    42.89494    42.90570    -0.00848     0.00231    -0.00337
  Hartree    94.82754    94.83556    94.83430    -0.00097     0.00470     0.00065
  E(xc)     -27.21046   -27.21068   -27.21062     0.00010     0.00015     0.00005
  Local    -196.47138  -196.52222  -196.53651     0.00172    -0.01668     0.00754
  n-local   -15.88229   -15.35632   -15.34075     0.40322     0.16902    -0.01237
  augment     0.11619     0.11513     0.11434    -0.00019     0.00050     0.00006
  Kinetic   101.13707   101.14287   101.14930    -0.00755    -0.00938    -0.00093
  Fock        0.00000     0.00000     0.00000     0.00000     0.00000     0.00000
  -------------------------------------------------------------------------------------
  Total      -0.35906     0.14154     0.15802     0.38784     0.15063    -0.00839
  in kB      -0.57528     0.22677     0.25318     0.62139     0.24133    -0.01344
  external pressure =       -0.03 kB  Pullay stress =        0.00 kB


 VOLUME and BASIS-vectors are now :
 -----------------------------------------------------------------------------
  energy-cutoff  :      400.00
  volume of cell :     1000.00
      direct lattice vectors                 reciprocal lattice vectors
    10.000000000  0.000000000  0.000000000     0.100000000  0.000000000  0.000000000
     0.000000000 10.000000000  0.000000000     0.000000000  0.100000000  0.000000000
     0.000000000  0.000000000 10.000000000     0.000000000  0.000000000  0.100000000

  length of vectors
    10.000000000 10.000000000 10.000000000     0.100000000  0.100000000  0.100000000


 FORCES acting on ions
    electron-ion (+dipol)            ewald-force                    non-local-force                 convergence-correction
 -----------------------------------------------------------------------------------------------
   -.168E+02 0.291E+02 0.408E+02   0.186E+02 -.321E+02 -.450E+02   -.166E+01 0.297E+01 0.372E+01   0.381E-04 -.732E-04 -.610E-04
   0.523E+02 -.630E+01 0.325E+01   -.578E+02 0.695E+01 -.360E+01   0.610E+01 -.193E+00 0.125E+01   -.107E-03 -.969E-05 0.280E-05
   -.235E+02 -.473E+02 0.122E+01   0.260E+02 0.522E+02 -.134E+01   -.220E+01 -.462E+01 0.178E+00   0.619E-04 0.818E-04 0.721E-05
   -.120E+02 0.245E+02 -.453E+02   0.133E+02 -.270E+02 0.500E+02   -.111E+01 0.234E+01 -.430E+01   0.260E-04 -.575E-04 0.750E-04
   0.241E-01 0.407E-02 0.656E-02   -.123E-01 0.664E-02 0.253E-02   -.818E+00 0.874E+00 -.389E+00   0.940E-04 -.196E-03 0.900E-04
 -----------------------------------------------------------------------------------------------
   -.499E-01 0.110E-01 0.934E-02   -.534E-14 0.354E-14 0.651E-17   0.319E+00 0.136E+01 0.462E+00   0.113E-03 -.255E-03 0.114E-03
 
 
 POSITION                                       TOTAL-FORCE (eV/Angst)
 -----------------------------------------------------------------------------------
      5.38154      4.06861      3.60573         0.017465     -0.334664     -0.586276
      3.94540      4.80321      4.38469         0.587818      0.180642      0.809986
      5.52092      5.65450      4.42709         0.172702      0.007354     -0.039974
      5.28185      4.16415      5.39183         0.081714     -0.462965      0.290266
      5.03251      4.67255      4.45232        -0.859700      0.609632     -0.474003
 -----------------------------------------------------------------------------------
    total drift:                                0.269160      1.372124      0.471686


--------------------------------------------------------------------------------------------------------



  FREE ENERGIE OF THE ION-ELECTRON SYSTEM (eV)
  ---------------------------------------------------
  free  energy   TOTEN  =       -24.03909517 eV

  energy  without entropy=      -24.03909517  energy(sigma->0) =      -24.03909517
 


--------------------------------------------------------------------------------------------------------


    POTLOK:  cpu time    1.0745: real time    1.0763


--------------------------------------------------------------------------------------------------------




--------------------------------------------------------------------------------------------------------


    WAVPRE:  cpu time    0.3196: real time    0.3272
    FEWALD:  cpu time    0.0002: real time    0.0002
    ORTHCH:  cpu time    0.0086: real time    0.0086
     LOOP+:  cpu time   21.1540: real time   21.2958


----------------------------------------- Iteration    2(   1)  ---------------------------------------


    POTLOK:  cpu time    1.0850: real time    1.0867
    SETDIJ:  cpu time    0.0032: real time    0.0032
     EDDAV:  cpu time    0.0248: real time    0.0249
       DOS:  cpu time    0.0000: real time    0.0000
    CHARGE:  cpu time    0.0698: real time    0.0699
    MIXING:  cpu time    0.0281: real time    0.0282
    --------------------------------------------
      LOOP:  cpu time    1.2129: real time    1.2178

 eigenvalue-minimisations  :    16
 total energy-change (2. order) : 0.1281560E+00  (-0.1058947E+01)
 number of electron       7.9999999 magnetization 
 augmentation part        0.1818373 magnetization 

 Broyden mixing:
  rms(total) = 0.12492E+00    rms(broyden)= 0.12485E+00
  rms(prec ) = 0.13823E+00
  weight for this iteration     100.00

 Free energy of the ion-electron system (eV)
  ---------------------------------------------------
  alpha Z        PSCENC =         0.24225079
  Ewald energy   TEWEN  =       127.27819900
  -Hartree energ DENC   =      -283.40005574
  -exchange      EXHF   =         0.00000000
  -V(xc)+E(xc)   XCENC  =        24.68901167
  PAW double counting   =       456.44088943     -457.22866410
  entropy T*S    EENTRO =        -0.00000000
  eigenvalues    EBANDS =       -88.97432384
  atomic energy  EATOM  =       197.04175453
  Solvation  Ediel_sol  =         0.00000000
  ---------------------------------------------------
  free energy    TOTEN  =       -23.91093825 eV

  energy without entropy =      -23.91093825  energy(sigma->0) =      -23.91093825


--------------------------------------------------------------------------------------------------------




----------------------------------------- Iteration    2(   2)  ---------------------------------------


    POTLOK:  cpu time    0.9881: real time    0.9897
    SETDIJ:  cpu time    0.0032: real time    0.0032
    EDDIAG:  cpu time    0.0138: real time    0.0138
  RMM-DIIS:  cpu time    0.0200: real time    0.0200
    ORTHCH:  cpu time    0.0056: real time    0.0056
       DOS:  cpu time    0.0000: real time    0.0000
    CHARGE:  cpu time    0.0697: real time    0.0699
    MIXING:  cpu time    0.0287: real time    0.0287
    --------------------------------------------
      LOOP:  cpu time    1.1298: real time    1.1349

 eigenvalue-minimisations  :    16
 total energy-change (2. order) :-0.3028208E-02  (-0.1727476E-01)
 number of electron       7.9999999 magnetization 
 augmentation part        0.1828191 magnetization 

 Broyden mixing:
  rms(total) = 0.88979E-01    rms(broyden)= 0.88970E-01
  rms(prec ) = 0.96617E-01
  weight for this iteration     100.00

 eigenvalues of (default mixing * dielectric matrix)
  average eigenvalue GAMMA=   2.6310
  2.6310

 Free energy of the ion-electron system (eV)
  ---------------------------------------------------
  alpha Z        PSCENC =         0.24225079
  Ewald energy   TEWEN  =       127.27819900
  -Hartree energ DENC   =      -282.97793902
  -exchange      EXHF   =         0.00000000
  -V(xc)+E(xc)   XCENC  =        24.66718546
  PAW double counting   =       427.38493152     -428.16766021
  entropy T*S    EENTRO =        -0.00000000
  eigenvalues    EBANDS =       -89.38268854
  atomic energy  EATOM  =       197.04175453
  Solvation  Ediel_sol  =         0.00000000
  ---------------------------------------------------
  free energy    TOTEN  =       -23.91396646 eV

  energy without entropy =      -23.91396646  energy(sigma->0) =      -23.91396646


--------------------------------------------------------------------------------------------------------




----------------------------------------- Iteration    2(   3)  ---------------------------------------


    POTLOK:  cpu time    0.9975: real time    0.9980
    SETDIJ:  cpu time    0.0035: real time    0.0034
    EDDIAG:  cpu time    0.0139: real time    0.0140
  RMM-DIIS:  cpu time    0.0200: real time    0.0200
    ORTHCH:  cpu time    0.0056: real time    0.0056
       DOS:  cpu time    0.0000: real time    0.0000
    CHARGE:  cpu time    0.0698: real time    0.0698
    MIXING:  cpu time    0.0292: real time    0.0293
    --------------------------------------------
      LOOP:  cpu time    1.1405: real time    1.1445

 eigenvalue-minimisations  :    16
 total energy-change (2. order) : 0.4495468E-02  (-0.3614083E-02)
 number of electron       7.9999999 magnetization 
 augmentation part        0.1829616 magnetization 

 Broyden mixing:
  rms(total) = 0.11458E-01    rms(broyden)= 0.11448E-01
  rms(prec ) = 0.14351E-01
  weight for this iteration     100.00

 eigenvalues of (default mixing * dielectric matrix)
  average eigenvalue GAMMA=   1.7185
  2.3716  1.0654

 Free energy of the ion-electron system (eV)
  ---------------------------------------------------
  alpha Z        PSCENC =         0.24225079
  Ewald energy   TEWEN  =       127.27819900
  -Hartree energ DENC   =      -282.95554940
  -exchange      EXHF   =         0.00000000
  -V(xc)+E(xc)   XCENC  =        24.66797779
  PAW double counting   =       381.58984400     -382.37355338
  entropy T*S    EENTRO =        -0.00000000
  eigenvalues    EBANDS =       -89.40039434
  atomic energy  EATOM  =       197.04175453
  Solvation  Ediel_sol  =         0.00000000
  ---------------------------------------------------
  free energy    TOTEN  =       -23.90947099 eV

  energy without entropy =      -23.90947099  energy(sigma->0) =      -23.90947099


--------------------------------------------------------------------------------------------------------




----------------------------------------- Iteration    2(   4)  ---------------------------------------


    POTLOK:  cpu time    0.9945: real time    0.9961
    SETDIJ:  cpu time    0.0032: real time    0.0032
    EDDIAG:  cpu time    0.0137: real time    0.0138
  RMM-DIIS:  cpu time    0.0199: real time    0.0200
    ORTHCH:  cpu time    0.0056: real time    0.0056
       DOS:  cpu time    0.0000: real time    0.0000
    CHARGE:  cpu time    0.0695: real time    0.0696
    MIXING:  cpu time    0.0297: real time    0.0297
    --------------------------------------------
      LOOP:  cpu time    1.1370: real time    1.1430

 eigenvalue-minimisations  :    16
 total energy-change (2. order) : 0.2971263E-03  (-0.7228614E-04)
 number of electron       7.9999999 magnetization 
 augmentation part        0.1829035 magnetization 

 Broyden mixing:
  rms(total) = 0.87258E-02    rms(broyden)= 0.87247E-02
  rms(prec ) = 0.98940E-02
  weight for this iteration     100.00

 eigenvalues of (default mixing * dielectric matrix)
  average eigenvalue GAMMA=   2.0862
  1.0039  3.1410  2.1137

 Free energy of the ion-electron system (eV)
  ---------------------------------------------------
  alpha Z        PSCENC =         0.24225079
  Ewald energy   TEWEN  =       127.27819900
  -Hartree energ DENC   =      -283.00315404
  -exchange      EXHF   =         0.00000000
  -V(xc)+E(xc)   XCENC  =        24.66987707
  PAW double counting   =       380.75541365     -381.53989499
  entropy T*S    EENTRO =        -0.00000000
  eigenvalues    EBANDS =       -89.35361990
  atomic energy  EATOM  =       197.04175453
  Solvation  Ediel_sol  =         0.00000000
  ---------------------------------------------------
  free energy    TOTEN  =       -23.90917387 eV

  energy without entropy =      -23.90917387  energy(sigma->0) =      -23.90917387


--------------------------------------------------------------------------------------------------------




----------------------------------------- Iteration    2(   5)  ---------------------------------------


    POTLOK:  cpu time    0.9994: real time    1.0011
    SETDIJ:  cpu time    0.0032: real time    0.0032
    EDDIAG:  cpu time    0.0138: real time    0.0138
  RMM-DIIS:  cpu time    0.0200: real time    0.0200
    ORTHCH:  cpu time    0.0056: real time    0.0058
       DOS:  cpu time    0.0000: real time    0.0000
    CHARGE:  cpu time    0.0694: real time    0.0696
    MIXING:  cpu time    0.0307: real time    0.0307
    --------------------------------------------
      LOOP:  cpu time    1.1430: real time    1.1491

 eigenvalue-minimisations  :    16
 total energy-change (2. order) : 0.2112376E-05  (-0.1073603E-03)
 number of electron       7.9999999 magnetization 
 augmentation part        0.1827903 magnetization 

 Broyden mixing:
  rms(total) = 0.37157E-02    rms(broyden)= 0.37148E-02
  rms(prec ) = 0.44761E-02
  weight for this iteration     100.00

 eigenvalues of (default mixing * dielectric matrix)
  average eigenvalue GAMMA=   1.6634
  2.5506  0.9772  1.5629  1.5629

 Free energy of the ion-electron system (eV)
  ---------------------------------------------------
  alpha Z        PSCENC =         0.24225079
  Ewald energy   TEWEN  =       127.27819900
  -Hartree energ DENC   =      -283.05948279
  -exchange      EXHF   =         0.00000000
  -V(xc)+E(xc)   XCENC  =        24.67231516
  PAW double counting   =       373.96553494     -374.75121225
  entropy T*S    EENTRO =        -0.00000000
  eigenvalues    EBANDS =       -89.29853114
  atomic energy  EATOM  =       197.04175453
  Solvation  Ediel_sol  =         0.00000000
  ---------------------------------------------------
  free energy    TOTEN  =       -23.90917176 eV

  energy without entropy =      -23.90917176  energy(sigma->0) =      -23.90917176


--------------------------------------------------------------------------------------------------------




----------------------------------------- Iteration    2(   6)  ---------------------------------------


    POTLOK:  cpu time    1.0037: real time    1.0054
    SETDIJ:  cpu time    0.0032: real time    0.0032
    EDDIAG:  cpu time    0.0137: real time    0.0137
  RMM-DIIS:  cpu time    0.0200: real time    0.0200
    ORTHCH:  cpu time    0.0056: real time    0.0056
       DOS:  cpu time    0.0000: real time    0.0000
    CHARGE:  cpu time    0.0696: real time    0.0697
    MIXING:  cpu time    0.0315: real time    0.0315
    --------------------------------------------
      LOOP:  cpu time    1.1482: real time    1.1578

 eigenvalue-minimisations  :    16
 total energy-change (2. order) : 0.3801327E-05  (-0.1689690E-04)
 number of electron       7.9999999 magnetization 
 augmentation part        0.1828438 magnetization 

 Broyden mixing:
  rms(total) = 0.11987E-02    rms(broyden)= 0.11985E-02
  rms(prec ) = 0.16780E-02
  weight for this iteration     100.00

 eigenvalues of (default mixing * dielectric matrix)
  average eigenvalue GAMMA=   1.7653
  2.7593  2.0271  2.0271  0.9454  1.0677

 Free energy of the ion-electron system (eV)
  ---------------------------------------------------
  alpha Z        PSCENC =         0.24225079
  Ewald energy   TEWEN  =       127.27819900
  -Hartree energ DENC   =      -283.01273372
  -exchange      EXHF   =         0.00000000
  -V(xc)+E(xc)   XCENC  =        24.67024517
  PAW double counting   =       375.94725689     -376.73218082
  entropy T*S    EENTRO =        -0.00000000
  eigenvalues    EBANDS =       -89.34395981
  atomic energy  EATOM  =       197.04175453
  Solvation  Ediel_sol  =         0.00000000
  ---------------------------------------------------
  free energy    TOTEN  =       -23.90916795 eV

  energy without entropy =      -23.90916795  energy(sigma->0) =      -23.90916795


--------------------------------------------------------------------------------------------------------




----------------------------------------- Iteration    2(   7)  ---------------------------------------


    POTLOK:  cpu time    1.0124: real time    1.0140
    SETDIJ:  cpu time    0.0032: real time    0.0032
    EDDIAG:  cpu time    0.0144: real time    0.0143
  RMM-DIIS:  cpu time    0.0200: real time    0.0200
    ORTHCH:  cpu time    0.0056: real time    0.0056
       DOS:  cpu time    0.0000: real time    0.0000
    CHARGE:  cpu time    0.0705: real time    0.0706
    MIXING:  cpu time    0.0322: real time    0.0323
    --------------------------------------------
      LOOP:  cpu time    1.1592: real time    1.1694

 eigenvalue-minimisations  :    16
 total energy-change (2. order) :-0.3994294E-04  (-0.2937347E-05)
 number of electron       7.9999999 magnetization 
 augmentation part        0.1828621 magnetization 

 Broyden mixing:
  rms(total) = 0.47129E-03    rms(broyden)= 0.47116E-03
  rms(prec ) = 0.77588E-03
  weight for this iteration     100.00

 eigenvalues of (default mixing * dielectric matrix)
  average eigenvalue GAMMA=   1.6378
  2.6272  2.1949  1.5325  1.5325  0.9698  0.9698

 Free energy of the ion-electron system (eV)
  ---------------------------------------------------
  alpha Z        PSCENC =         0.24225079
  Ewald energy   TEWEN  =       127.27819900
  -Hartree energ DENC   =      -283.00249127
  -exchange      EXHF   =         0.00000000
  -V(xc)+E(xc)   XCENC  =        24.66974325
  PAW double counting   =       375.27491453     -376.05976724
  entropy T*S    EENTRO =        -0.00000000
  eigenvalues    EBANDS =       -89.35381148
  atomic energy  EATOM  =       197.04175453
  Solvation  Ediel_sol  =         0.00000000
  ---------------------------------------------------
  free energy    TOTEN  =       -23.90920790 eV

  energy without entropy =      -23.90920790  energy(sigma->0) =      -23.90920790


--------------------------------------------------------------------------------------------------------




----------------------------------------- Iteration    2(   8)  ---------------------------------------


    POTLOK:  cpu time    1.0184: real time    1.0201
    SETDIJ:  cpu time    0.0032: real time    0.0032
    EDDIAG:  cpu time    0.0138: real time    0.0138
  RMM-DIIS:  cpu time    0.0195: real time    0.0195
    ORTHCH:  cpu time    0.0056: real time    0.0056
       DOS:  cpu time    0.0000: real time    0.0000
    CHARGE:  cpu time    0.0694: real time    0.0696
    MIXING:  cpu time    0.0327: real time    0.0328
    --------------------------------------------
      LOOP:  cpu time    1.1634: real time    1.1732

 eigenvalue-minimisations  :    15
 total energy-change (2. order) :-0.1021280E-04  (-0.5159989E-06)
 number of electron       7.9999999 magnetization 
 augmentation part        0.1828528 magnetization 

 Broyden mixing:
  rms(total) = 0.31796E-03    rms(broyden)= 0.31788E-03
  rms(prec ) = 0.56819E-03
  weight for this iteration     100.00

 eigenvalues of (default mixing * dielectric matrix)
  average eigenvalue GAMMA=   1.8119
  3.3109  2.5006  2.2242  1.6772  1.0466  1.0120  0.9118

 Free energy of the ion-electron system (eV)
  ---------------------------------------------------
  alpha Z        PSCENC =         0.24225079
  Ewald energy   TEWEN  =       127.27819900
  -Hartree energ DENC   =      -283.01252124
[...]
  Hartree    94.88773    94.36969    93.40517     0.07530     0.15634    -0.39075
  E(xc)     -27.09203   -27.10245   -27.12038     0.00166     0.00318    -0.00777
  Local    -198.29861  -195.88080  -191.79463    -0.39319    -0.63952     1.53598
  n-local   -14.76423   -14.51396   -15.40922    -0.12367    -0.28836     0.12608
  augment     0.12702     0.13051     0.13531    -0.00076    -0.00022     0.00129
  Kinetic    99.74480   100.32766   101.34478    -0.10746    -0.20226     0.39126
  Fock        0.00000     0.00000     0.00000     0.00000     0.00000     0.00000
  -------------------------------------------------------------------------------------
  Total      -0.04498     0.25002    -0.38817    -0.13741    -0.40518     0.28990
  in kB      -0.07206     0.40058    -0.62191    -0.22016    -0.64918     0.46448
  external pressure =       -0.10 kB  Pullay stress =        0.00 kB


 VOLUME and BASIS-vectors are now :
 -----------------------------------------------------------------------------
  energy-cutoff  :      400.00
  volume of cell :     1000.00
      direct lattice vectors                 reciprocal lattice vectors
    10.000000000  0.000000000  0.000000000     0.100000000  0.000000000  0.000000000
     0.000000000 10.000000000  0.000000000     0.000000000  0.100000000  0.000000000
     0.000000000  0.000000000 10.000000000     0.000000000  0.000000000  0.100000000

  length of vectors
    10.000000000 10.000000000 10.000000000     0.100000000  0.100000000  0.100000000


 FORCES acting on ions
    electron-ion (+dipol)            ewald-force                    non-local-force                 convergence-correction
 -----------------------------------------------------------------------------------------------
   -.161E+02 0.296E+02 0.398E+02   0.175E+02 -.323E+02 -.436E+02   -.159E+01 0.290E+01 0.376E+01   -.205E-04 0.413E-04 0.172E-03
   0.520E+02 -.674E+01 0.946E+00   -.571E+02 0.745E+01 -.114E+01   0.500E+01 -.507E+00 0.148E+00   0.265E-03 -.125E-03 -.531E-05
   -.256E+02 -.456E+02 0.647E+00   0.280E+02 0.501E+02 -.735E+00   -.257E+01 -.426E+01 0.307E-01   -.731E-04 -.250E-03 0.471E-05
   -.126E+02 0.257E+02 -.438E+02   0.138E+02 -.281E+02 0.481E+02   -.138E+01 0.262E+01 -.428E+01   0.135E-04 0.172E-04 -.181E-03
   0.210E+01 -.275E+01 0.246E+01   -.214E+01 0.286E+01 -.263E+01   -.134E+00 0.110E+00 0.121E+00   0.257E-03 -.384E-03 0.599E-05
 -----------------------------------------------------------------------------------------------
   -.177E+00 0.169E+00 0.302E-01   0.178E-14 0.355E-14 0.000E+00   -.671E+00 0.860E+00 -.225E+00   0.442E-03 -.701E-03 -.365E-05
 
 
 POSITION                                       TOTAL-FORCE (eV/Angst)
 -----------------------------------------------------------------------------------
      5.36584      4.05420      3.59859        -0.009926     -0.010041     -0.011186
      3.92608      4.82629      4.42449         0.003239      0.002000     -0.007563
      5.56367      5.65029      4.43061         0.009678      0.012479     -0.017953
      5.28724      4.14347      5.36691        -0.000026     -0.016058      0.044764
      5.01939      4.68876      4.44106        -0.002965      0.011621     -0.008061
 -----------------------------------------------------------------------------------
    total drift:                               -0.847312      1.027427     -0.194454


--------------------------------------------------------------------------------------------------------



  FREE ENERGIE OF THE ION-ELECTRON SYSTEM (eV)
  ---------------------------------------------------
  free  energy   TOTEN  =       -24.08755301 eV

  energy  without entropy=      -24.08755301  energy(sigma->0) =      -24.08755301
 
 d Force = 0.1365594E-04[-0.217E-04, 0.490E-04]  d Energy = 0.1422014E-04-0.564E-06
 d Force =-0.3765314E-01[-0.377E-01,-0.376E-01]  d Ewald  =-0.3765313E-01-0.325E-08


--------------------------------------------------------------------------------------------------------


    POTLOK:  cpu time    1.0788: real time    1.0808


--------------------------------------------------------------------------------------------------------


 Steepest descent step on ions:
 trial-energy change:   -0.000014  1 .order   -0.000014   -0.000049    0.000022
  (g-gl).g = 0.349E-03      g.g   = 0.268E-03  gl.gl    = 0.127E-03
 g(Force)  = 0.268E-03   g(Stress)= 0.000E+00 ortho     =-0.591E-04
 gamma     =   0.00000
 trial     =   0.18284
 opt step  =   0.12673  (harmonic =   0.12673) maximal distance =0.00024425
 next E    =   -24.087556   (d E  =  -0.00002)


--------------------------------------------------------------------------------------------------------


    WAVPRE:  cpu time    0.3116: real time    0.3175
    FEWALD:  cpu time    0.0002: real time    0.0002
    ORTHCH:  cpu time    0.0083: real time    0.0083
     LOOP+:  cpu time    7.8045: real time    7.8447


----------------------------------------- Iteration   56(   1)  ---------------------------------------


    POTLOK:  cpu time    1.0873: real time    1.0893
    SETDIJ:  cpu time    0.0033: real time    0.0033
     EDDAV:  cpu time    0.0324: real time    0.0325
       DOS:  cpu time    0.0000: real time    0.0000
    CHARGE:  cpu time    0.0673: real time    0.0674
    MIXING:  cpu time    0.0270: real time    0.0271
    --------------------------------------------
      LOOP:  cpu time    1.2183: real time    1.2231

 eigenvalue-minimisations  :    32
 total energy-change (2. order) :-0.3423642E-05  (-0.2525846E-05)
 number of electron       8.0000006 magnetization 
 augmentation part        0.1829077 magnetization 

 Broyden mixing:
  rms(total) = 0.26290E-03    rms(broyden)= 0.26278E-03
  rms(prec ) = 0.29461E-03
  weight for this iteration     100.00

 Free energy of the ion-electron system (eV)
  ---------------------------------------------------
  alpha Z        PSCENC =         0.24225079
  Ewald energy   TEWEN  =       126.58227243
  -Hartree energ DENC   =      -282.65631179
  -exchange      EXHF   =         0.00000000
  -V(xc)+E(xc)   XCENC  =        24.64387898
  PAW double counting   =       400.05985879     -400.84046649
  entropy T*S    EENTRO =        -0.00000000
  eigenvalues    EBANDS =       -89.16079364
  atomic energy  EATOM  =       197.04175453
  Solvation  Ediel_sol  =         0.00000000
  ---------------------------------------------------
  free energy    TOTEN  =       -24.08755640 eV

  energy without entropy =      -24.08755640  energy(sigma->0) =      -24.08755640


--------------------------------------------------------------------------------------------------------




----------------------------------------- Iteration   56(   2)  ---------------------------------------


    POTLOK:  cpu time    1.0819: real time    1.0839
    SETDIJ:  cpu time    0.0033: real time    0.0033
    EDDIAG:  cpu time    0.0126: real time    0.0126
  RMM-DIIS:  cpu time    0.0158: real time    0.0158
    ORTHCH:  cpu time    0.0053: real time    0.0053
       DOS:  cpu time    0.0000: real time    0.0000
    CHARGE:  cpu time    0.0669: real time    0.0670
    MIXING:  cpu time    0.0278: real time    0.0279
    --------------------------------------------
      LOOP:  cpu time    1.2143: real time    1.2199

 eigenvalue-minimisations  :    12
 total energy-change (2. order) : 0.3876920E-07  (-0.4788119E-07)
 number of electron       8.0000006 magnetization 
 augmentation part        0.1829097 magnetization 

 Broyden mixing:
  rms(total) = 0.14837E-03    rms(broyden)= 0.14835E-03
  rms(prec ) = 0.16496E-03
  weight for this iteration     100.00

 eigenvalues of (default mixing * dielectric matrix)
  average eigenvalue GAMMA=   2.0895
  2.0895

 Free energy of the ion-electron system (eV)
  ---------------------------------------------------
  alpha Z        PSCENC =         0.24225079
  Ewald energy   TEWEN  =       126.58227243
  -Hartree energ DENC   =      -282.65441611
  -exchange      EXHF   =         0.00000000
  -V(xc)+E(xc)   XCENC  =        24.64377338
  PAW double counting   =       399.99795389     -400.77853831
  entropy T*S    EENTRO =        -0.00000000
  eigenvalues    EBANDS =       -89.16260697
  atomic energy  EATOM  =       197.04175453
  Solvation  Ediel_sol  =         0.00000000
  ---------------------------------------------------
  free energy    TOTEN  =       -24.08755636 eV

  energy without entropy =      -24.08755636  energy(sigma->0) =      -24.08755636


--------------------------------------------------------------------------------------------------------




----------------------------------------- Iteration   56(   3)  ---------------------------------------


    POTLOK:  cpu time    1.0841: real time    1.0861
    SETDIJ:  cpu time    0.0032: real time    0.0033
    EDDIAG:  cpu time    0.0127: real time    0.0127
  RMM-DIIS:  cpu time    0.0158: real time    0.0158
    ORTHCH:  cpu time    0.0054: real time    0.0054
       DOS:  cpu time    0.0000: real time    0.0000
    CHARGE:  cpu time    0.0669: real time    0.0670
    MIXING:  cpu time    0.0284: real time    0.0284
    --------------------------------------------
      LOOP:  cpu time    1.2173: real time    1.2236

 eigenvalue-minimisations  :    12
 total energy-change (2. order) :-0.3228462E-07  (-0.2015140E-07)
 number of electron       8.0000006 magnetization 
 augmentation part        0.1829121 magnetization 

 Broyden mixing:
  rms(total) = 0.30470E-04    rms(broyden)= 0.30453E-04
  rms(prec ) = 0.36647E-04
  weight for this iteration     100.00

 eigenvalues of (default mixing * dielectric matrix)
  average eigenvalue GAMMA=   1.6165
  2.2252  1.0079

 Free energy of the ion-electron system (eV)
  ---------------------------------------------------
  alpha Z        PSCENC =         0.24225079
  Ewald energy   TEWEN  =       126.58227243
  -Hartree energ DENC   =      -282.65288480
  -exchange      EXHF   =         0.00000000
  -V(xc)+E(xc)   XCENC  =        24.64368359
  PAW double counting   =       399.93300383     -400.71356849
  entropy T*S    EENTRO =        -0.00000000
  eigenvalues    EBANDS =       -89.16406827
  atomic energy  EATOM  =       197.04175453
  Solvation  Ediel_sol  =         0.00000000
  ---------------------------------------------------
  free energy    TOTEN  =       -24.08755640 eV

  energy without entropy =      -24.08755640  energy(sigma->0) =      -24.08755640


--------------------------------------------------------------------------------------------------------




----------------------------------------- Iteration   56(   4)  ---------------------------------------


    POTLOK:  cpu time    1.0789: real time    1.0809
    SETDIJ:  cpu time    0.0032: real time    0.0032
    EDDIAG:  cpu time    0.0127: real time    0.0127
  RMM-DIIS:  cpu time    0.0150: real time    0.0150
    ORTHCH:  cpu time    0.0053: real time    0.0053
       DOS:  cpu time    0.0000: real time    0.0000
    --------------------------------------------
      LOOP:  cpu time    1.1159: real time    1.1219

 eigenvalue-minimisations  :     9
 total energy-change (2. order) :-0.1763033E-07  (-0.7708607E-09)
 number of electron       8.0000006 magnetization 
 augmentation part        0.1829121 magnetization 

 Free energy of the ion-electron system (eV)
  ---------------------------------------------------
  alpha Z        PSCENC =         0.24225079
  Ewald energy   TEWEN  =       126.58227243
  -Hartree energ DENC   =      -282.65320861
  -exchange      EXHF   =         0.00000000
  -V(xc)+E(xc)   XCENC  =        24.64369706
  PAW double counting   =       399.92856693     -400.70913590
  entropy T*S    EENTRO =        -0.00000000
  eigenvalues    EBANDS =       -89.16375364
  atomic energy  EATOM  =       197.04175453
  Solvation  Ediel_sol  =         0.00000000
  ---------------------------------------------------
  free energy    TOTEN  =       -24.08755641 eV

  energy without entropy =      -24.08755641  energy(sigma->0) =      -24.08755641


--------------------------------------------------------------------------------------------------------




 average (electrostatic) potential at core
  the test charge radii are     0.5201  0.6991
  (the norm of the test charge is              1.0000)
       1 -41.3983       2 -41.4950       3 -41.4562       4 -41.3765       5 -58.0118
 
 
 
 E-fermi :  -8.8106     XC(G=0):  -0.7008     alpha+bet : -0.2107


 k-point     1 :       0.0000    0.0000    0.0000
  band No.  band energies     occupation 
      1     -16.8371      2.00000
      2      -9.3979      2.00000
      3      -9.2733      2.00000
      4      -9.0736      2.00000
      5      -0.5410      0.00000
      6       1.0037      0.00000
      7       1.0318      0.00000
      8       1.0435      0.00000


--------------------------------------------------------------------------------------------------------


 soft charge-density along one line, spin component           1
         0         1         2         3         4         5         6         7         8         9
 total charge-density along one line
 
 pseudopotential strength for first ion, spin component:           1
 -2.340  -4.032  -0.001  -0.001   0.001
 -4.032  -6.861  -0.003  -0.004   0.002
 -0.001  -0.003  -0.337   0.002  -0.001
 -0.001  -0.004   0.002  -0.336  -0.001
  0.001   0.002  -0.001  -0.001  -0.338
 total augmentation occupancy for first ion, spin component:           1
  3.418  -0.600   0.263   0.357  -0.139
 -0.600   0.119  -0.047  -0.065   0.025
  0.263  -0.047   0.026   0.024  -0.009
  0.357  -0.065   0.024   0.042  -0.012
 -0.139   0.025  -0.009  -0.012   0.012


------------------------ aborting loop because EDIFF is reached ----------------------------------------


    CHARGE:  cpu time    0.0671: real time    0.0672
    FORLOC:  cpu time    0.0964: real time    0.0966
    FORNL :  cpu time    0.0124: real time    0.0124
    STRESS:  cpu time    0.0992: real time    0.0993
    FORCOR:  cpu time    1.0604: real time    1.0624
    FORHAR:  cpu time    0.3191: real time    0.3197
    MIXING:  cpu time    0.0290: real time    0.0291
    OFIELD:  cpu time    0.0000: real time    0.0000

  FORCE on cell =-STRESS in cart. coord.  units (eV):
  Direction    XX          YY          ZZ          XY          YZ          ZX
  --------------------------------------------------------------------------------------
  Alpha Z     0.24225     0.24225     0.24225
  Ewald      45.10836    42.67329    38.80057     0.41207     0.57106    -1.36377
  Hartree    94.88303    94.36663    93.40415     0.07467     0.15742    -0.38990
  E(xc)     -27.09146   -27.10185   -27.11974     0.00165     0.00321    -0.00775
  Local    -198.29222  -195.87442  -191.78887    -0.39301    -0.64475     1.53305
  n-local   -14.76705   -14.52239   -15.42230    -0.12403    -0.28796     0.12255
  augment     0.12703     0.13055     0.13537    -0.00077    -0.00023     0.00129
  Kinetic    99.74347   100.32484   101.34003    -0.10684    -0.20347     0.39044
  Fock        0.00000     0.00000     0.00000     0.00000     0.00000     0.00000
  -------------------------------------------------------------------------------------
  Total      -0.04659     0.23890    -0.40853    -0.13626    -0.40473     0.28590
  in kB      -0.07464     0.38276    -0.65454    -0.21831    -0.64844     0.45807
  external pressure =       -0.12 kB  Pullay stress =        0.00 kB


 VOLUME and BASIS-vectors are now :
 -----------------------------------------------------------------------------
  energy-cutoff  :      400.00
  volume of cell :     1000.00
      direct lattice vectors                 reciprocal lattice vectors
    10.000000000  0.000000000  0.000000000     0.100000000  0.000000000  0.000000000
     0.000000000 10.000000000  0.000000000     0.000000000  0.100000000  0.000000000
     0.000000000  0.000000000 10.000000000     0.000000000  0.000000000  0.100000000

  length of vectors
    10.000000000 10.000000000 10.000000000     0.100000000  0.100000000  0.100000000


 FORCES acting on ions
    electron-ion (+dipol)            ewald-force                    non-local-force                 convergence-correction
 -----------------------------------------------------------------------------------------------
   -.161E+02 0.296E+02 0.398E+02   0.175E+02 -.323E+02 -.436E+02   -.159E+01 0.291E+01 0.377E+01   0.300E-05 -.232E-04 -.650E-04
   0.520E+02 -.673E+01 0.945E+00   -.571E+02 0.745E+01 -.114E+01   0.500E+01 -.506E+00 0.149E+00   -.727E-04 0.307E-04 -.371E-05
   -.256E+02 -.456E+02 0.645E+00   0.280E+02 0.501E+02 -.732E+00   -.257E+01 -.427E+01 0.295E-01   0.175E-04 0.772E-04 -.570E-05
   -.126E+02 0.257E+02 -.438E+02   0.138E+02 -.281E+02 0.481E+02   -.138E+01 0.262E+01 -.431E+01   -.552E-05 -.167E-04 0.633E-04
   0.209E+01 -.274E+01 0.246E+01   -.213E+01 0.284E+01 -.263E+01   -.132E+00 0.107E+00 0.124E+00   -.988E-04 0.119E-03 -.296E-04
 -----------------------------------------------------------------------------------------------
   -.179E+00 0.173E+00 0.287E-01   -.355E-14 -.355E-14 0.711E-14   -.670E+00 0.860E+00 -.237E+00   -.157E-03 0.187E-03 -.407E-04
 
 
 POSITION                                       TOTAL-FORCE (eV/Angst)
 -----------------------------------------------------------------------------------
      5.36586      4.05415      3.59848        -0.008988     -0.001271      0.004803
      3.92611      4.82628      4.42448        -0.000228      0.002295     -0.004066
      5.56360      5.65033      4.43064         0.014461      0.004638     -0.016452
      5.28729      4.14347      5.36703        -0.006073     -0.010689      0.017642
      5.01936      4.68879      4.44103         0.000828      0.005027     -0.001928
 -----------------------------------------------------------------------------------
    total drift:                               -0.849159      1.032415     -0.208183


--------------------------------------------------------------------------------------------------------



  FREE ENERGIE OF THE ION-ELECTRON SYSTEM (eV)
  ---------------------------------------------------
  free  energy   TOTEN  =       -24.08755641 eV

  energy  without entropy=      -24.08755641  energy(sigma->0) =      -24.08755641
 
 d Force = 0.3288119E-05[-0.812E-07, 0.666E-05]  d Energy = 0.3400205E-05-0.112E-06
 d Force = 0.1155781E-01[ 0.116E-01, 0.116E-01]  d Ewald  = 0.1155781E-01 0.985E-10


--------------------------------------------------------------------------------------------------------


    POTLOK:  cpu time    1.0839: real time    1.0859


--------------------------------------------------------------------------------------------------------




--------------------------------------------------------------------------------------------------------


  
 reached required accuracy - stopping structural energy minimisation
     LOOP+:  cpu time    7.5410: real time    7.5821
    4ORBIT:  cpu time    0.0000: real time    0.0000

 total amount of memory used by VASP MPI-rank0   296224. kBytes
=======================================================================

   base      :      30000. kBytes
   nonlr-proj:        167. kBytes
   fftplans  :      94700. kBytes
   grid      :     169030. kBytes
   one-center:         15. kBytes
   wavefun   :       2312. kBytes
 
  
  
 General timing and accounting informations for this job:
 ========================================================
  
                  Total CPU time used (sec):      502.285
                            User time (sec):      483.408
                          System time (sec):       18.878
                         Elapsed time (sec):      505.424
  
                   Maximum memory used (kb):      810508.
                   Average memory used (kb):           0.
  
                          Minor page faults:      1637598
                          Major page faults:            0
                 Voluntary context switches:         9001
