<?xml version="1.0" encoding="ISO-8859-1"?>
<modeling>
 <generator>
  <i name="program" type="string">vasp </i>
  <i name="version" type="string">5.4.4.18Apr17-6-g9f103f2a35  </i>
  <i name="subversion" type="string">(build Mar 16 2019 02:52:56) complex            parallel </i>
  <i name="platform" type="string">LinuxGNU </i>
  <i name="date" type="string">2019 06 23 </i>
  <i name="time" type="string">03:53:55 </i>
 </generator>
 <incar>
  <i type="string" name="PREC">a</i>
  <i type="string" name="ALGO">fast</i>
  <i type="int" name="NELMIN">     4</i>
  <i type="int" name="IBRION">     2</i>
  <i name="EDIFF">      0.00000100</i>
  <i type="int" name="NSW">  1000</i>
  <i type="int" name="ISIF">     2</i>
  <i name="ENCUT">    400.00000000</i>
  <i type="logical" name="LREAL"> T  </i>
  <i type="int" name="ISMEAR">     0</i>
  <i name="SIGMA">      0.05000000</i>
  <i name="KSPACING">      2.00000000</i>
  <i type="logical" name="KGAMMA"> F  </i>
  <i name="PSTRESS">      0.00000000</i>
  <i type="logical" name="LWAVE"> F  </i>
  <i type="logical" name="LCHARG"> F  </i>
  <v type="int" name="KPOINT_BSE">    -1     0     0     0</v>
 </incar>
 <structure name="primitive_cell" >
  <crystal>
   <varray name="basis" >
    <v>      10.00000000       0.00000000       0.00000000 </v>
    <v>       0.00000000      10.00000000       0.00000000 </v>
    <v>       0.00000000       0.00000000      10.00000000 </v>
   </varray>
   <i name="volume">   1000.00000000 </i>
   <varray name="rec_basis" >
    <v>       0.10000000       0.00000000       0.00000000 </v>
    <v>       0.00000000       0.10000000       0.00000000 </v>
    <v>       0.00000000       0.00000000       0.10000000 </v>
   </varray>
  </crystal>
  <varray name="positions" >
   <v>      -0.46184564       0.40686078       0.36057303 </v>
   <v>      -0.49674940       0.46725517       0.44523235 </v>
   <v>       0.39453964       0.48032055       0.43846884 </v>
   <v>      -0.44790754      -0.43454971       0.44270873 </v>
   <v>      -0.47181468       0.41641479      -0.46081734 </v>
  </varray>
 </structure>
 <varray name="primitive_index" >
  <v type="int" >        1 </v>
  <v type="int" >        5 </v>
  <v type="int" >        2 </v>
  <v type="int" >        3 </v>
  <v type="int" >        4 </v>
 </varray>
 <kpoints>
  <generation param="Monkhorst-Pack">
   <v type="int" name="divisions">       1        1        1 </v>
   <v name="usershift">      0.00000000       0.00000000       0.00000000 </v>
   <v name="genvec1">      1.00000000       0.00000000       0.00000000 </v>
   <v name="genvec2">      0.00000000       1.00000000       0.00000000 </v>
   <v name="genvec3">      0.00000000       0.00000000       1.00000000 </v>
   <v name="shift">      0.00000000       0.00000000       0.00000000 </v>
  </generation>
  <varray name="kpointlist" >
   <v>       0.00000000       0.00000000       0.00000000 </v>
  </varray>
  <varray name="weights" >
   <v>       1.00000000 </v>
  </varray>
 </kpoints>
 <parameters>
  <separator name="general" >
   <i type="string" name="SYSTEM">unknown system</i>
   <i type="logical" name="LCOMPAT"> F  </i>
  </separator>
  <separator name="electronic" >
   <i type="string" name="PREC">a</i>
   <i name="ENMAX">    400.00000000</i>
   <i name="ENAUG">    644.87300000</i>
   <i name="EDIFF">      0.00000100</i>
   <i type="int" name="IALGO">    68</i>
   <i type="int" name="IWAVPR">    11</i>
   <i type="int" name="NBANDS">     8</i>
   <i name="NELECT">      8.00000000</i>
   <i type="int" name="TURBO">     0</i>
   <i type="int" name="IRESTART">     0</i>
   <i type="int" name="NREBOOT">     0</i>
   <i type="int" name="NMIN">     0</i>
   <i name="EREF">      0.00000000</i>
   <separator name="electronic smearing" >
    <i type="int" name="ISMEAR">     0</i>
    <i name="SIGMA">      0.05000000</i>
    <i name="KSPACING">      2.00000000</i>
    <i type="logical" name="KGAMMA"> F  </i>
   </separator>
   <separator name="electronic projectors" >
    <i type="logical" name="LREAL"> T  </i>
    <v name="ROPT">      0.00000000      0.00000000</v>
    <i type="int" name="LMAXPAW">  -100</i>
    <i type="int" name="LMAXMIX">     2</i>
    <i type="logical" name="NLSPLINE"> F  </i>
   </separator>
   <separator name="electronic startup" >
    <i type="int" name="ISTART">     0</i>
    <i type="int" name="ICHARG">     2</i>
    <i type="int" name="INIWAV">     1</i>
   </separator>
   <separator name="electronic spin" >
    <i type="int" name="ISPIN">     1</i>
    <i type="logical" name="LNONCOLLINEAR"> F  </i>
    <v name="MAGMOM">      1.00000000      1.00000000      1.00000000      1.00000000      1.00000000</v>
    <i name="NUPDOWN">     -1.00000000</i>
    <i type="logical" name="LSORBIT"> F  </i>
    <v name="SAXIS">      0.00000000      0.00000000      1.00000000</v>
    <i type="logical" name="LSPIRAL"> F  </i>
    <v name="QSPIRAL">      0.00000000      0.00000000      0.00000000</v>
    <i type="logical" name="LZEROZ"> F  </i>
   </separator>
   <separator name="electronic exchange-correlation" >
    <i type="logical" name="LASPH"> F  </i>
    <i type="logical" name="LMETAGGA"> F  </i>
   </separator>
   <separator name="electronic convergence" >
    <i type="int" name="NELM">    60</i>
    <i type="int" name="NELMDL">    -5</i>
    <i type="int" name="NELMIN">     4</i>
    <i name="ENINI">    400.00000000</i>
    <separator name="electronic convergence detail" >
     <i type="logical" name="LDIAG"> T  </i>
     <i type="logical" name="LSUBROT"> F  </i>
     <i name="WEIMIN">      0.00100000</i>
     <i name="EBREAK">      0.00000003</i>
     <i name="DEPER">      0.30000000</i>
     <i type="int" name="NRMM">     4</i>
     <i name="TIME">      0.40000000</i>
    </separator>
   </separator>
   <separator name="electronic mixer" >
    <i name="AMIX">      0.40000000</i>
    <i name="BMIX">      1.00000000</i>
    <i name="AMIN">      0.10000000</i>
    <i name="AMIX_MAG">      1.60000000</i>
    <i name="BMIX_MAG">      1.00000000</i>
    <separator name="electronic mixer details" >
     <i type="int" name="IMIX">     4</i>
     <i type="logical" name="MIXFIRST"> F  </i>
     <i type="int" name="MAXMIX">   -45</i>
     <i name="WC">    100.00000000</i>
     <i type="int" name="INIMIX">     1</i>
     <i type="int" name="MIXPRE">     1</i>
     <i type="int" name="MREMOVE">     5</i>
    </separator>
   </separator>
   <separator name="electronic dipolcorrection" >
    <i type="logical" name="LDIPOL"> F  </i>
    <i type="logical" name="LMONO"> F  </i>
    <i type="int" name="IDIPOL">     0</i>
    <i name="EPSILON">      1.00000000</i>
    <v name="DIPOL">   -100.00000000   -100.00000000   -100.00000000</v>
    <i name="EFIELD">      0.00000000</i>
   </separator>
  </separator>
  <separator name="grids" >
   <i type="int" name="NGX">    70</i>
   <i type="int" name="NGY">    70</i>
   <i type="int" name="NGZ">    70</i>
   <i type="int" name="NGXF">   140</i>
   <i type="int" name="NGYF">   140</i>
   <i type="int" name="NGZF">   140</i>
   <i type="logical" name="ADDGRID"> F  </i>
  </separator>
  <separator name="ionic" >
   <i type="int" name="NSW">  1000</i>
   <i type="int" name="IBRION">     2</i>
   <i type="int" name="MDALGO">     0</i>
   <i type="int" name="ISIF">     2</i>
   <i name="PSTRESS">      0.00000000</i>
   <i name="EDIFFG">      0.00001000</i>
   <i type="int" name="NFREE">     1</i>
   <i name="POTIM">      0.50000000</i>
   <i name="SMASS">     -3.00000000</i>
   <i name="SCALEE">      1.00000000</i>
  </separator>
  <separator name="ionic md" >
   <i name="TEBEG">      0.00010000</i>
   <i name="TEEND">      0.00010000</i>
   <i type="int" name="NBLOCK">     1</i>
   <i type="int" name="KBLOCK">  1000</i>
   <i type="int" name="NPACO">   256</i>
   <i name="APACO">     16.00000000</i>
  </separator>
  <separator name="symmetry" >
   <i type="int" name="ISYM">     2</i>
   <i name="SYMPREC">      0.00001000</i>
  </separator>
  <separator name="dos" >
   <i type="int" name="LORBIT">     0</i>
   <v name="RWIGS">     -1.00000000     -1.00000000</v>
   <i type="int" name="NEDOS">   301</i>
   <i name="EMIN">     10.00000000</i>
   <i name="EMAX">    -10.00000000</i>
   <i name="EFERMI">      0.00000000</i>
  </separator>
  <separator name="writing" >
   <i type="int" name="NWRITE">     2</i>
   <i type="logical" name="LWAVE"> F  </i>
   <i type="logical" name="LDOWNSAMPLE"> F  </i>
   <i type="logical" name="LCHARG"> F  </i>
   <i type="logical" name="LPARD"> F  </i>
   <i type="logical" name="LVTOT"> F  </i>
   <i type="logical" name="LVHAR"> F  </i>
   <i type="logical" name="LELF"> F  </i>
   <i type="logical" name="LOPTICS"> F  </i>
   <v name="STM">      0.00000000      0.00000000      0.00000000      0.00000000      0.00000000      0.00000000      0.00000000</v>
  </separator>
  <separator name="performance" >
   <i type="int" name="NPAR">     1</i>
   <i type="int" name="NSIM">     4</i>
   <i type="int" name="NBLK">    -1</i>
   <i type="logical" name="LPLANE"> T  </i>
   <i type="logical" name="LSCALAPACK"> F  </i>
   <i type="logical" name="LSCAAWARE"> F  </i>
   <i type="logical" name="LSCALU"> F  </i>
   <i type="logical" name="LASYNC"> F  </i>
   <i type="logical" name="LORBITALREAL"> F  </i>
  </separator>
  <separator name="miscellaneous" >
   <i type="int" name="IDIOT">     3</i>
   <i type="int" name="ISPECIAL">     0</i>
   <i type="logical" name="LMUSIC"> F  </i>
   <v name="POMASS">      1.00000000     12.01100000</v>
   <v name="DARWINR">      0.00000000      0.00000000</v>
   <v name="DARWINV">      1.00000000      1.00000000</v>
   <i type="logical" name="LCORR"> T  </i>
  </separator>
  <i type="logical" name="GGA_COMPAT"> T  </i>
  <i type="logical" name="LBERRY"> F  </i>
  <i type="int" name="ICORELEVEL">     0</i>
  <i type="logical" name="LDAU"> F  </i>
  <i type="int" name="I_CONSTRAINED_M">     0</i>
  <separator name="electronic exchange-correlation" >
   <i type="string" name="GGA">--</i>
   <i type="int" name="VOSKOWN">     0</i>
   <i type="logical" name="LHFCALC"> F  </i>
   <i type="string" name="PRECFOCK"></i>
   <i type="logical" name="LSYMGRAD"> F  </i>
   <i type="logical" name="LHFONE"> F  </i>
   <i type="logical" name="LRHFCALC"> F  </i>
   <i type="logical" name="LTHOMAS"> F  </i>
   <i type="logical" name="LMODELHF"> F  </i>
   <i name="ENCUT4O">     -1.00000000</i>
   <i type="int" name="EXXOEP">     0</i>
   <i type="int" name="FOURORBIT">     0</i>
   <i name="AEXX">      0.00000000</i>
   <i name="HFALPHA">      0.00000000</i>
   <i name="MCALPHA">      0.00000000</i>
   <i name="ALDAX">      1.00000000</i>
   <i name="AGGAX">      1.00000000</i>
   <i name="ALDAC">      1.00000000</i>
   <i name="AGGAC">      1.00000000</i>
   <i type="int" name="NKREDX">     1</i>
   <i type="int" name="NKREDY">     1</i>
   <i type="int" name="NKREDZ">     1</i>
   <i type="logical" name="SHIFTRED"> F  </i>
   <i type="logical" name="ODDONLY"> F  </i>
   <i type="logical" name="EVENONLY"> F  </i>
   <i type="int" name="LMAXFOCK">     0</i>
   <i type="int" name="NMAXFOCKAE">     0</i>
   <i type="logical" name="LFOCKAEDFT"> F  </i>
   <i name="HFSCREEN">      0.00000000</i>
   <i name="HFSCREENC">      0.00000000</i>
   <i type="int" name="NBANDSGWLOW">     0</i>
  </separator>
  <separator name="vdW DFT" >
   <i type="logical" name="LUSE_VDW"> F  </i>
   <i name="Zab_VDW">     -0.84910000</i>
   <i name="PARAM1">      0.12340000</i>
   <i name="PARAM2">      1.00000000</i>
   <i name="PARAM3">      0.00000000</i>
  </separator>
  <separator name="model GW" >
   <i type="int" name="MODEL_GW">     0</i>
   <i name="MODEL_EPS0">    120.00000000</i>
   <i name="MODEL_ALPHA">      1.00000000</i>
  </separator>
  <separator name="linear response parameters" >
   <i type="logical" name="LEPSILON"> F  </i>
   <i type="logical" name="LRPA"> F  </i>
   <i type="logical" name="LNABLA"> F  </i>
   <i type="logical" name="LVEL"> F  </i>
   <i type="int" name="KINTER">     0</i>
   <i name="CSHIFT">      0.10000000</i>
   <i name="OMEGAMAX">     -1.00000000</i>
   <i name="DEG_THRESHOLD">      0.00200000</i>
   <i name="RTIME">     -0.10000000</i>
   <i name="WPLASMAI">      0.00000000</i>
   <v name="DFIELD">      0.00000000      0.00000000      0.00000000</v>
   <v name="WPLASMA">      0.00000000      0.00000000      0.00000000      0.00000000      0.00000000      0.00000000      0.00000000      0.00000000      0.00000000</v>
  </separator>
  <separator name="orbital magnetization" >
   <i type="logical" name="NUCIND"> F  </i>
   <v name="MAGPOS">      0.00000000      0.00000000      0.00000000</v>
   <i type="logical" name="LNICSALL"> T  </i>
   <i type="logical" name="ORBITALMAG"> F  </i>
   <i type="logical" name="LMAGBLOCH"> F  </i>
   <i type="logical" name="LCHIMAG"> F  </i>
   <i type="logical" name="LGAUGE"> T  </i>
   <i type="int" name="MAGATOM">     0</i>
   <v name="MAGDIPOL">      0.00000000      0.00000000      0.00000000</v>
   <v name="AVECCONST">      0.00000000      0.00000000      0.00000000</v>
  </separator>
  <separator name="response functions" >
   <i type="logical" name="LADDER"> F  </i>
   <i type="logical" name="LRPAFORCE"> F  </i>
   <i type="logical" name="LFXC"> F  </i>
   <i type="logical" name="LHARTREE"> T  </i>
   <i type="int" name="IBSE">     0</i>
   <v type="int" name="KPOINT">    -1     0     0     0</v>
   <i type="logical" name="LTCTE"> F  </i>
   <i type="logical" name="LTETE"> F  </i>
   <i type="logical" name="LTRIPLET"> F  </i>
   <i type="logical" name="LFXCEPS"> F  </i>
   <i type="logical" name="LFXHEG"> F  </i>
   <i type="int" name="NATURALO">     2</i>
   <i type="logical" name="L2ORDER"> F  </i>
   <i type="logical" name="LMP2LT"> F  </i>
   <i type="logical" name="LUSEW"> F  </i>
   <i name="ENCUTGW">     -2.00000000</i>
   <i name="ENCUTGWSOFT">     -2.00000000</i>
   <i name="ENCUTLF">     -1.00000000</i>
   <i type="int" name="LMAXMP2">    -1</i>
   <i name="SCISSOR">      0.00000000</i>
   <i type="int" name="NOMEGA">     0</i>
   <i type="int" name="NOMEGAR">     0</i>
   <i type="int" name="NBANDSGW">    -1</i>
   <i type="int" name="NBANDSO">    -1</i>
   <i type="int" name="NBANDSV">    -1</i>
   <i type="int" name="NELM">     1</i>
   <i type="int" name="NELMHF">     1</i>
   <i type="int" name="DIM">     3</i>
   <i type="int" name="ANTIRES">     0</i>
   <i name="OMEGAMAX">    -30.00000000</i>
   <i name="OMEGAMIN">    -30.00000000</i>
   <i name="OMEGATL">   -200.00000000</i>
   <i type="int" name="OMEGAGRID">   140</i>
   <i name="CSHIFT">     -0.10000000</i>
   <i type="logical" name="SELFENERGY"> F  </i>
   <i type="logical" name="LSPECTRAL"> F  </i>
   <i type="logical" name="LSPECTRALGW"> F  </i>
   <i type="logical" name="LSINGLES"> F  </i>
   <i type="logical" name="LFERMIGW"> F  </i>
   <i type="logical" name="ODDONLYGW"> F  </i>
   <i type="logical" name="EVENONLYGW"> F  </i>
   <i type="int" name="NKREDLFX">     1</i>
   <i type="int" name="NKREDLFY">     1</i>
   <i type="int" name="NKREDLFZ">     1</i>
   <i type="int" name="MAXMEM">  2800</i>
   <i type="int" name="TELESCOPE">     0</i>
   <i type="int" name="TAUPAR">     1</i>
   <i type="int" name="OMEGAPAR">    -1</i>
   <i name="LAMBDA">      1.00000000</i>
  </separator>
  <separator name="External order field" >
   <i name="OFIELD_KAPPA">      0.00000000</i>
   <v name="OFIELD_K">      0.00000000      0.00000000      0.00000000</v>
   <i name="OFIELD_Q6_NEAR">      0.00000000</i>
   <i name="OFIELD_Q6_FAR">      0.00000000</i>
   <i name="OFIELD_A">      0.00000000</i>
  </separator>
 </parameters>
 <atominfo>
  <atoms>       5 </atoms>
  <types>       2 </types>
  <array name="atoms" >
   <dimension dim="1">ion</dimension>
   <field type="string">element</field>
   <field type="int">atomtype</field>
   <set>
    <rc><c>H </c><c>   1</c></rc>
    <rc><c>H </c><c>   1</c></rc>
    <rc><c>H </c><c>   1</c></rc>
    <rc><c>H </c><c>   1</c></rc>
    <rc><c>C </c><c>   2</c></rc>
   </set>
  </array>
  <array name="atomtypes" >
   <dimension dim="1">type</dimension>
   <field type="int">atomspertype</field>
   <field type="string">element</field>
   <field>mass</field>
   <field>valence</field>
   <field type="string">pseudopotential</field>
   <set>
    <rc><c>   4</c><c>H </c><c>      1.00000000</c><c>      1.00000000</c><c>  PAW_PBE H 15Jun2001                   </c></rc>
    <rc><c>   1</c><c>C </c><c>     12.01100000</c><c>      4.00000000</c><c>  PAW_PBE C 08Apr2002                   </c></rc>
   </set>
  </array>
 </atominfo>
 <structure name="initialpos" >
  <crystal>
   <varray name="basis" >
    <v>      10.00000000       0.00000000       0.00000000 </v>
    <v>       0.00000000      10.00000000       0.00000000 </v>
    <v>       0.00000000       0.00000000      10.00000000 </v>
   </varray>
   <i name="volume">   1000.00000000 </i>
   <varray name="rec_basis" >
    <v>       0.10000000       0.00000000       0.00000000 </v>
    <v>       0.00000000       0.10000000       0.00000000 </v>
    <v>       0.00000000       0.00000000       0.10000000 </v>
   </varray>
  </crystal>
  <varray name="positions" >
   <v>       0.53815436       0.40686078       0.36057303 </v>
   <v>       0.39453964       0.48032055       0.43846884 </v>
   <v>       0.55209246       0.56545029       0.44270873 </v>
   <v>       0.52818532       0.41641479       0.53918266 </v>
   <v>       0.50325060       0.46725517       0.44523235 </v>
  </varray>
 </structure>
 <calculation>
  <scstep>
   <time name="dav">    0.03    0.03</time>
   <time name="total">    1.14    1.15</time>
   <energy>
    <i name="alphaZ">      0.24225079 </i>
    <i name="ewald">    128.68268725 </i>
    <i name="hartreedc">   -243.96695109 </i>
    <i name="XCdc">     22.00907777 </i>
    <i name="pawpsdc">    117.05815612 </i>
    <i name="pawaedc">   -117.66307307 </i>
    <i name="eentropy">     -0.00000000 </i>
    <i name="bandstr">    -48.08129056 </i>
    <i name="atom">    197.04175453 </i>
    <i name="e_fr_energy">     55.32261174 </i>
    <i name="e_wo_entrp">     55.32261174 </i>
    <i name="e_0_energy">     55.32261174 </i>
   </energy>
  </scstep>
  <scstep>
   <time name="dav">    0.03    0.03</time>
   <time name="total">    0.03    0.03</time>
   <energy>
    <i name="e_fr_energy">     -9.70076679 </i>
    <i name="e_wo_entrp">     -9.70076679 </i>
    <i name="e_0_energy">     -9.70076679 </i>
   </energy>
  </scstep>
  <scstep>
   <time name="dav">    0.03    0.03</time>
   <time name="total">    0.03    0.03</time>
   <energy>
    <i name="e_fr_energy">    -26.52516709 </i>
    <i name="e_wo_entrp">    -26.52516709 </i>
    <i name="e_0_energy">    -26.52516709 </i>
   </energy>
  </scstep>
  <scstep>
   <time name="dav">    0.03    0.03</time>
   <time name="total">    0.03    0.03</time>
   <energy>
    <i name="e_fr_energy">    -27.53652491 </i>
    <i name="e_wo_entrp">    -27.53652491 </i>
    <i name="e_0_energy">    -27.53652491 </i>
   </energy>
  </scstep>
  <scstep>
   <time name="dav">    0.03    0.03</time>
   <time name="total">    0.14    0.14</time>
   <energy>
    <i name="e_fr_energy">    -27.56844964 </i>
    <i name="e_wo_entrp">    -27.56844964 </i>
    <i name="e_0_energy">    -27.56844964 </i>
   </energy>
  </scstep>
  <scstep>
   <time name="diag">    0.01    0.01</time>
   <time name="diis">    0.02    0.02</time>
   <time name="orth">    0.01    0.01</time>
   <time name="total">    1.26    1.26</time>
   <energy>
    <i name="e_fr_energy">    -24.67845916 </i>
    <i name="e_wo_entrp">    -24.67845916 </i>
    <i name="e_0_energy">    -24.67845916 </i>
   </energy>
  </scstep>
  <scstep>
   <time name="diag">    0.01    0.01</time>
   <time name="diis">    0.02    0.02</time>
   <time name="orth">    0.01    0.01</time>
   <time name="total">    1.25    1.25</time>
   <energy>
    <i name="e_fr_energy">    -24.18364649 </i>
    <i name="e_wo_entrp">    -24.18364649 </i>
    <i name="e_0_energy">    -24.18364649 </i>
   </energy>
  </scstep>
  <scstep>
   <time name="diag">    0.01    0.01</time>
   <time name="diis">    0.02    0.02</time>
   <time name="orth">    0.01    0.01</time>
   <time name="total">    1.26    1.26</time>
   <energy>
    <i name="e_fr_energy">    -24.03710604 </i>
    <i name="e_wo_entrp">    -24.03710604 </i>
    <i name="e_0_energy">    -24.03710604 </i>
   </energy>
  </scstep>
  <scstep>
   <time name="diag">    0.01    0.01</time>
   <time name="diis">    0.02    0.02</time>
   <time name="orth">    0.01    0.01</time>
   <time name="total">    1.26    1.26</time>
   <energy>
    <i name="e_fr_energy">    -24.03095749 </i>
    <i name="e_wo_entrp">    -24.03095749 </i>
    <i name="e_0_energy">    -24.03095749 </i>
   </energy>
  </scstep>
  <scstep>
   <time name="diag">    0.01    0.01</time>
   <time name="diis">    0.02    0.02</time>
   <time name="orth">    0.01    0.01</time>
   <time name="total">    1.22    1.22</time>
   <energy>
    <i name="e_fr_energy">    -24.02496506 </i>
    <i name="e_wo_entrp">    -24.02496506 </i>
    <i name="e_0_energy">    -24.02496506 </i>
   </energy>
  </scstep>
  <scstep>
   <time name="diag">    0.01    0.01</time>
   <time name="diis">    0.02    0.02</time>
   <time name="orth">    0.01    0.01</time>
   <time name="total">    1.21    1.22</time>
   <energy>
    <i name="e_fr_energy">    -24.02629212 </i>
    <i name="e_wo_entrp">    -24.02629212 </i>
    <i name="e_0_energy">    -24.02629212 </i>
   </energy>
  </scstep>
  <scstep>
   <time name="diag">    0.01    0.01</time>
   <time name="diis">    0.02    0.02</time>
   <time name="orth">    0.01    0.01</time>
   <time name="total">    1.15    1.16</time>
   <energy>
    <i name="e_fr_energy">    -24.03514999 </i>
    <i name="e_wo_entrp">    -24.03514999 </i>
    <i name="e_0_energy">    -24.03514999 </i>
   </energy>
  </scstep>
  <scstep>
   <time name="diag">    0.01    0.01</time>
   <time name="diis">    0.02    0.02</time>
   <time name="orth">    0.01    0.01</time>
   <time name="total">    1.15    1.16</time>
   <energy>
    <i name="e_fr_energy">    -24.03565678 </i>
    <i name="e_wo_entrp">    -24.03565678 </i>
    <i name="e_0_energy">    -24.03565678 </i>
   </energy>
  </scstep>
  <scstep>
   <time name="diag">    0.01    0.01</time>
   <time name="diis">    0.02    0.02</time>
   <time name="orth">    0.01    0.01</time>
   <time name="total">    1.14    1.14</time>
   <energy>
    <i name="e_fr_energy">    -24.03867135 </i>
    <i name="e_wo_entrp">    -24.03867135 </i>
    <i name="e_0_energy">    -24.03867135 </i>
   </energy>
  </scstep>
  <scstep>
   <time name="diag">    0.01    0.01</time>
   <time name="diis">    0.02    0.02</time>
   <time name="orth">    0.01    0.01</time>
   <time name="total">    1.14    1.15</time>
   <energy>
    <i name="e_fr_energy">    -24.03881222 </i>
    <i name="e_wo_entrp">    -24.03881222 </i>
    <i name="e_0_energy">    -24.03881222 </i>
   </energy>
  </scstep>
  <scstep>
   <time name="diag">    0.01    0.01</time>
   <time name="diis">    0.02    0.02</time>
   <time name="orth">    0.01    0.01</time>
   <time name="total">    1.15    1.16</time>
   <energy>
    <i name="e_fr_energy">    -24.03905267 </i>
    <i name="e_wo_entrp">    -24.03905267 </i>
    <i name="e_0_energy">    -24.03905267 </i>
   </energy>
  </scstep>
  <scstep>
   <time name="diag">    0.01    0.01</time>
   <time name="diis">    0.02    0.02</time>
   <time name="orth">    0.01    0.01</time>
   <time name="total">    1.17    1.18</time>
   <energy>
    <i name="e_fr_energy">    -24.03908036 </i>
    <i name="e_wo_entrp">    -24.03908036 </i>
    <i name="e_0_energy">    -24.03908036 </i>
   </energy>
  </scstep>
  <scstep>
   <time name="diag">    0.01    0.01</time>
   <time name="diis">    0.02    0.02</time>
   <time name="orth">    0.01    0.01</time>
   <time name="total">    1.20    1.21</time>
   <energy>
    <i name="e_fr_energy">    -24.03909429 </i>
    <i name="e_wo_entrp">    -24.03909429 </i>
    <i name="e_0_energy">    -24.03909429 </i>
   </energy>
  </scstep>
  <scstep>
   <time name="diag">    0.01    0.01</time>
   <time name="diis">    0.02    0.02</time>
   <time name="orth">    0.01    0.01</time>
   <time name="total">    1.10    1.11</time>
   <energy>
    <i name="alphaZ">      0.24225079 </i>
    <i name="ewald">    128.68268725 </i>
    <i name="hartreedc">   -284.49655851 </i>
    <i name="XCdc">     24.74184692 </i>
    <i name="pawpsdc">    456.44490418 </i>
    <i name="pawaedc">   -457.23268622 </i>
    <i name="eentropy">     -0.00000000 </i>
    <i name="bandstr">    -89.46329411 </i>
    <i name="atom">    197.04175453 </i>
    <i name="e_fr_energy">    -24.03909517 </i>
    <i name="e_wo_entrp">    -24.03909517 </i>
    <i name="e_0_energy">    -24.03909517 </i>
   </energy>
  </scstep>
  <structure>
   <crystal>
    <varray name="basis" >
     <v>      10.00000000       0.00000000       0.00000000 </v>
     <v>       0.00000000      10.00000000       0.00000000 </v>
     <v>       0.00000000       0.00000000      10.00000000 </v>
    </varray>
    <i name="volume">   1000.00000000 </i>
    <varray name="rec_basis" >
     <v>       0.10000000       0.00000000       0.00000000 </v>
     <v>       0.00000000       0.10000000       0.00000000 </v>
     <v>       0.00000000       0.00000000       0.10000000 </v>
    </varray>
   </crystal>
   <varray name="positions" >
    <v>       0.53815436       0.40686078       0.36057303 </v>
    <v>       0.39453964       0.48032055       0.43846884 </v>
    <v>       0.55209246       0.56545029       0.44270873 </v>
    <v>       0.52818532       0.41641479       0.53918266 </v>
    <v>       0.50325060       0.46725517       0.44523235 </v>
   </varray>
  </structure>
  <varray name="forces" >
   <v>       0.01746548      -0.33466351      -0.58627586 </v>
   <v>       0.58781799       0.18064188       0.80998640 </v>
   <v>       0.17270173       0.00735440      -0.03997365 </v>
   <v>       0.08171449      -0.46296527       0.29026571 </v>
   <v>      -0.85969968       0.60963250      -0.47400260 </v>
  </varray>
  <varray name="stress" >
   <v>      -0.57528154       0.62139383      -0.01343539 </v>
   <v>       0.62139382       0.22676584       0.24133408 </v>
   <v>      -0.01343539       0.24133408       0.25318245 </v>
  </varray>
  <energy>
   <i name="e_fr_energy">    -24.03909517 </i>
   <i name="e_wo_entrp">    -24.03909517 </i>
   <i name="e_0_energy">     -0.00000000 </i>
  </energy>
  <time name="totalsc">   21.15   21.30</time>
 </calculation>
 <calculation>
  <scstep>
   <time name="dav">    0.02    0.02</time>
   <time name="total">    1.21    1.22</time>
   <energy>
    <i name="alphaZ">      0.24225079 </i>
    <i name="ewald">    127.27819900 </i>
    <i name="hartreedc">   -283.40005574 </i>
    <i name="XCdc">     24.68901167 </i>
    <i name="pawpsdc">    456.44088943 </i>
    <i name="pawaedc">   -457.22866410 </i>
    <i name="eentropy">     -0.00000000 </i>
    <i name="bandstr">    -88.97432384 </i>
    <i name="atom">    197.04175453 </i>
    <i name="e_fr_energy">    -23.91093825 </i>
    <i name="e_wo_entrp">    -23.91093825 </i>
    <i name="e_0_energy">    -23.91093825 </i>
   </energy>
  </scstep>
  <scstep>
   <time name="diag">    0.01    0.01</time>
   <time name="diis">    0.02    0.02</time>
   <time name="orth">    0.01    0.01</time>
   <time name="total">    1.13    1.13</time>
   <energy>
    <i name="e_fr_energy">    -23.91396646 </i>
    <i name="e_wo_entrp">    -23.91396646 </i>
    <i name="e_0_energy">    -23.91396646 </i>
   </energy>
  </scstep>
  <scstep>
   <time name="diag">    0.01    0.01</time>
   <time name="diis">    0.02    0.02</time>
   <time name="orth">    0.01    0.01</time>
   <time name="total">    1.14    1.14</time>
   <energy>
    <i name="e_fr_energy">    -23.90947099 </i>
    <i name="e_wo_entrp">    -23.90947099 </i>
    <i name="e_0_energy">    -23.90947099 </i>
   </energy>
  </scstep>
  <scstep>
   <time name="diag">    0.01    0.01</time>
   <time name="diis">    0.02    0.02</time>
   <time name="orth">    0.01    0.01</time>
   <time name="total">    1.14    1.14</time>
   <energy>
    <i name="e_fr_energy">    -23.90917387 </i>
    <i name="e_wo_entrp">    -23.90917387 </i>
    <i name="e_0_energy">    -23.90917387 </i>
   </energy>
  </scstep>
  <scstep>
   <time name="diag">    0.01    0.01</time>
   <time name="diis">    0.02    0.02</time>
   <time name="orth">    0.01    0.01</time>
   <time name="total">    1.14    1.15</time>
   <energy>
    <i name="e_fr_energy">    -23.90917176 </i>
    <i name="e_wo_entrp">    -23.90917176 </i>
    <i name="e_0_energy">    -23.90917176 </i>
   </energy>
  </scstep>
  <scstep>
   <time name="diag">    0.01    0.01</time>
   <time name="diis">    0.02    0.02</time>
   <time name="orth">    0.01    0.01</time>
   <time name="total">    1.15    1.16</time>
   <energy>
    <i name="e_fr_energy">    -23.90916795 </i>
    <i name="e_wo_entrp">    -23.90916795 </i>
    <i name="e_0_energy">    -23.90916795 </i>
   </energy>
  </scstep>
  <scstep>
   <time name="diag">    0.01    0.01</time>
   <time name="diis">    0.02    0.02</time>
   <time name="orth">    0.01    0.01</time>
   <time name="total">    1.16    1.17</time>
   <energy>
    <i name="e_fr_energy">    -23.90920790 </i>
    <i name="e_wo_entrp">    -23.90920790 </i>
    <i name="e_0_energy">    -23.90920790 </i>
   </energy>
  </scstep>
  <scstep>
   <time name="diag">    0.01    0.01</time>
   <time name="diis">    0.02    0.02</time>
   <time name="orth">    0.01    0.01</time>
   <time name="total">    1.16    1.17</time>
   <energy>
    <i name="e_fr_energy">    -23.90921811 </i>
    <i name="e_wo_entrp">    -23.90921811 </i>
    <i name="e_0_energy">    -23.90921811 </i>
   </energy>
  </scstep>
  <scstep>
   <time name="diag">    0.01    0.01</time>
   <time name="diis">    0.02    0.02</time>
   <time name="orth">    0.01    0.01</time>
   <time name="total">    1.17    1.18</time>
   <energy>
    <i name="e_fr_energy">    -23.90926382 </i>
    <i name="e_wo_entrp">    -23.90926382 </i>
    <i name="e_0_energy">    -23.90926382 </i>
   </energy>
  </scstep>
  <scstep>
   <time name="diag">    0.01    0.01</time>
   <time name="diis">    0.02    0.02</time>
   <time name="orth">    0.01    0.01</time>
   <time name="total">    1.06    1.07</time>
   <energy>
    <i name="alphaZ">      0.24225079 </i>
    <i name="ewald">    127.27819900 </i>
    <i name="hartreedc">   -283.01405718 </i>
    <i name="XCdc">     24.67023387 </i>
    <i name="pawpsdc">    375.27173044 </i>
    <i name="pawaedc">   -376.05677386 </i>
    <i name="eentropy">     -0.00000000 </i>
    <i name="bandstr">    -89.34260208 </i>
    <i name="atom">    197.04175453 </i>
    <i name="e_fr_energy">    -23.90926449 </i>
    <i name="e_wo_entrp">    -23.90926449 </i>
    <i name="e_0_energy">    -23.90926449 </i>
   </energy>
  </scstep>
  <structure>
   <crystal>
    <varray name="basis" >
     <v>      10.00000000       0.00000000       0.00000000 </v>
     <v>       0.00000000      10.00000000       0.00000000 </v>
     <v>       0.00000000       0.00000000      10.00000000 </v>
    </varray>
    <i name="volume">   1000.00000000 </i>
    <varray name="rec_basis" >
     <v>       0.10000000       0.00000000       0.00000000 </v>
     <v>       0.00000000       0.10000000       0.00000000 </v>
     <v>       0.00000000       0.00000000       0.10000000 </v>
    </varray>
   </crystal>
   <varray name="positions" >
    <v>       0.53823862       0.40524627       0.35774468 </v>
    <v>       0.39737543       0.48119201       0.44237643 </v>
    <v>       0.55292562       0.56548577       0.44251589 </v>
    <v>       0.52857953       0.41418132       0.54058298 </v>
    <v>       0.49910318       0.47019620       0.44294564 </v>
   </varray>
  </structure>
  <varray name="forces" >
   <v>      -0.64559441       0.81926447       0.50514944 </v>
   <v>      -2.67926119      -0.23274562      -0.13321212 </v>
   <v>      -0.18245563       0.10174046       0.17425596 </v>
   <v>      -0.69077731       1.07183937      -1.34228227 </v>
   <v>       4.19808855      -1.76009868       0.79608898 </v>
  </varray>
  <varray name="stress" >
   <v>       1.99213328       0.88857558       0.18920334 </v>
   <v>       0.88857558      -2.07688577       0.31746089 </v>
   <v>       0.18920333       0.31746090      -4.51590966 </v>
  </varray>
  <energy>
   <i name="e_fr_energy">    -23.90926449 </i>
   <i name="e_wo_entrp">    -23.90926449 </i>
   <i name="e_0_energy">     -0.00000000 </i>
  </energy>
  <time name="totalsc">   14.57   14.67</time>
 </calculation>
 <calculation>
  <scstep>
   <time name="dav">    0.02    0.02</time>
   <time name="total">    1.17    1.17</time>
   <energy>
    <i name="alphaZ">      0.24225079 </i>
    <i name="ewald">    128.25692971 </i>
    <i name="hartreedc">   -283.74181410 </i>
    <i name="XCdc">     24.70378894 </i>
    <i name="pawpsdc">    375.30918177 </i>
    <i name="pawaedc">   -376.09408298 </i>
    <i name="eentropy">     -0.00000000 </i>
    <i name="bandstr">    -89.77618676 </i>
    <i name="atom">    197.04175453 </i>
    <i name="e_fr_energy">    -24.05817808 </i>
    <i name="e_wo_entrp">    -24.05817808 </i>
    <i name="e_0_energy">    -24.05817808 </i>
   </energy>
  </scstep>
  <scstep>
   <time name="diag">    0.01    0.01</time>
   <time name="diis">    0.02    0.02</time>
   <time name="orth">    0.01    0.01</time>
   <time name="total">    1.19    1.20</time>
   <energy>
    <i name="e_fr_energy">    -24.05822155 </i>
    <i name="e_wo_entrp">    -24.05822155 </i>
    <i name="e_0_energy">    -24.05822155 </i>
   </energy>
  </scstep>
  <scstep>
   <time name="diag">    0.01    0.01</time>
   <time name="diis">    0.02    0.02</time>
   <time name="orth">    0.01    0.01</time>
   <time name="total">    1.20    1.20</time>
   <energy>
    <i name="e_fr_energy">    -24.05628439 </i>
    <i name="e_wo_entrp">    -24.05628439 </i>
    <i name="e_0_energy">    -24.05628439 </i>
   </energy>
  </scstep>
  <scstep>
   <time name="diag">    0.01    0.01</time>
   <time name="diis">    0.02    0.02</time>
   <time name="orth">    0.01    0.01</time>
   <time name="total">    1.19    1.20</time>
   <energy>
    <i name="e_fr_energy">    -24.05563220 </i>
    <i name="e_wo_entrp">    -24.05563220 </i>
    <i name="e_0_energy">    -24.05563220 </i>
   </energy>
  </scstep>
  <scstep>
   <time name="diag">    0.01    0.01</time>
   <time name="diis">    0.02    0.02</time>
   <time name="orth">    0.01    0.01</time>
   <time name="total">    1.17    1.18</time>
   <energy>
    <i name="e_fr_energy">    -24.05563039 </i>
    <i name="e_wo_entrp">    -24.05563039 </i>
    <i name="e_0_energy">    -24.05563039 </i>
   </energy>
  </scstep>
  <scstep>
   <time name="diag">    0.01    0.01</time>
   <time name="diis">    0.02    0.02</time>
   <time name="orth">    0.01    0.01</time>
   <time name="total">    1.18    1.19</time>
   <energy>
    <i name="e_fr_energy">    -24.05559397 </i>
    <i name="e_wo_entrp">    -24.05559397 </i>
    <i name="e_0_energy">    -24.05559397 </i>
   </energy>
  </scstep>
  <scstep>
   <time name="diag">    0.01    0.01</time>
   <time name="diis">    0.02    0.02</time>
   <time name="orth">    0.01    0.01</time>
   <time name="total">    1.18    1.19</time>
   <energy>
    <i name="e_fr_energy">    -24.05562458 </i>
    <i name="e_wo_entrp">    -24.05562458 </i>
    <i name="e_0_energy">    -24.05562458 </i>
   </energy>
  </scstep>
  <scstep>
   <time name="diag">    0.01    0.01</time>
   <time name="diis">    0.02    0.02</time>
   <time name="orth">    0.01    0.01</time>
   <time name="total">    1.08    1.09</time>
   <energy>
    <i name="alphaZ">      0.24225079 </i>
    <i name="ewald">    128.25692971 </i>
    <i name="hartreedc">   -284.11112094 </i>
    <i name="XCdc">     24.72211333 </i>
    <i name="pawpsdc">    426.36339758 </i>
    <i name="pawaedc">   -427.14971182 </i>
    <i name="eentropy">     -0.00000000 </i>
    <i name="bandstr">    -89.42123723 </i>
    <i name="atom">    197.04175453 </i>
    <i name="e_fr_energy">    -24.05562403 </i>
    <i name="e_wo_entrp">    -24.05562403 </i>
    <i name="e_0_energy">    -24.05562403 </i>
   </energy>
  </scstep>
  <structure>
   <crystal>
    <varray name="basis" >
     <v>      10.00000000       0.00000000       0.00000000 </v>
     <v>       0.00000000      10.00000000       0.00000000 </v>
     <v>       0.00000000       0.00000000      10.00000000 </v>
    </varray>
    <i name="volume">   1000.00000000 </i>
    <varray name="rec_basis" >
     <v>       0.10000000       0.00000000       0.00000000 </v>
     <v>       0.00000000       0.10000000       0.00000000 </v>
     <v>       0.00000000       0.00000000       0.10000000 </v>
    </varray>
   </crystal>
   <varray name="positions" >
    <v>       0.53817666       0.40643342       0.35982436 </v>
    <v>       0.39529028       0.48055123       0.43950319 </v>
    <v>       0.55231300       0.56545968       0.44265768 </v>
    <v>       0.52828967       0.41582359       0.53955333 </v>
    <v>       0.50215277       0.46803367       0.44462705 </v>
   </varray>
  </structure>
  <varray name="forces" >
   <v>      -0.13989564      -0.15591363       0.02341365 </v>
   <v>      -0.53378543      -0.01916442       0.08163599 </v>
   <v>       0.29667919      -0.08373362       0.09109070 </v>
   <v>       0.05567097       0.16810245      -0.12027247 </v>
   <v>       0.32133091       0.09070922      -0.07586787 </v>
  </varray>
  <varray name="stress" >
   <v>       0.45715514       0.06170131       0.64526290 </v>
   <v>       0.06170131       0.22427144       0.01828125 </v>
   <v>       0.64526290       0.01828124      -0.52442186 </v>
  </varray>
  <energy>
   <i name="e_fr_energy">    -24.05562403 </i>
   <i name="e_wo_entrp">    -24.05562403 </i>
   <i name="e_0_energy">     -0.00000000 </i>
  </energy>
  <time name="totalsc">   12.45   12.52</time>
 </calculation>
 <calculation>
  <scstep>
   <time name="dav">    0.03    0.03</time>
   <time name="total">    1.18    1.19</time>
   <energy>
    <i name="alphaZ">      0.24225079 </i>
    <i name="ewald">    128.30894937 </i>
    <i name="hartreedc">   -284.13515555 </i>
    <i name="XCdc">     24.72331203 </i>
    <i name="pawpsdc">    426.38270901 </i>
    <i name="pawaedc">   -427.16885394 </i>
    <i name="eentropy">     -0.00000000 </i>
    <i name="bandstr">    -89.45106809 </i>
    <i name="atom">    197.04175453 </i>
    <i name="e_fr_energy">    -24.05610184 </i>
    <i name="e_wo_entrp">    -24.05610184 </i>
    <i name="e_0_energy">    -24.05610184 </i>
   </energy>
  </scstep>
  <scstep>
   <time name="diag">    0.01    0.01</time>
   <time name="diis">    0.02    0.02</time>
   <time name="orth">    0.01    0.01</time>
   <time name="total">    1.19    1.19</time>
   <energy>
    <i name="e_fr_energy">    -24.05610057 </i>
    <i name="e_wo_entrp">    -24.05610057 </i>
    <i name="e_0_energy">    -24.05610057 </i>
   </energy>
  </scstep>
  <scstep>
   <time name="diag">    0.01    0.01</time>
   <time name="diis">    0.02    0.02</time>
   <time name="orth">    0.01    0.01</time>
   <time name="total">    1.18    1.19</time>
   <energy>
    <i name="e_fr_energy">    -24.05610460 </i>
    <i name="e_wo_entrp">    -24.05610460 </i>
    <i name="e_0_energy">    -24.05610460 </i>
   </energy>
  </scstep>
  <scstep>
   <time name="diag">    0.01    0.01</time>
   <time name="diis">    0.02    0.02</time>
   <time name="orth">    0.01    0.01</time>
   <time name="total">    1.09    1.10</time>
   <energy>
    <i name="alphaZ">      0.24225079 </i>
    <i name="ewald">    128.30894937 </i>
    <i name="hartreedc">   -284.16436240 </i>
    <i name="XCdc">     24.72470301 </i>
    <i name="pawpsdc">    429.43315914 </i>
    <i name="pawaedc">   -430.21967587 </i>
    <i name="eentropy">     -0.00000000 </i>
    <i name="bandstr">    -89.42288377 </i>
    <i name="atom">    197.04175453 </i>
    <i name="e_fr_energy">    -24.05610519 </i>
    <i name="e_wo_entrp">    -24.05610519 </i>
    <i name="e_0_energy">    -24.05610519 </i>
   </energy>
  </scstep>
  <structure>
   <crystal>
    <varray name="basis" >
     <v>      10.00000000       0.00000000       0.00000000 </v>
     <v>       0.00000000      10.00000000       0.00000000 </v>
     <v>       0.00000000       0.00000000      10.00000000 </v>
    </varray>
    <i name="volume">   1000.00000000 </i>
    <varray name="rec_basis" >
     <v>       0.10000000       0.00000000       0.00000000 </v>
     <v>       0.00000000       0.10000000       0.00000000 </v>
     <v>       0.00000000       0.00000000       0.10000000 </v>
    </varray>
   </crystal>
   <varray name="positions" >
    <v>       0.53817382       0.40648782       0.35991966 </v>
    <v>       0.39519473       0.48052186       0.43937152 </v>
    <v>       0.55228493       0.56545849       0.44266418 </v>
    <v>       0.52827639       0.41589884       0.53950614 </v>
    <v>       0.50229252       0.46793457       0.44470410 </v>
   </varray>
  </structure>
  <varray name="forces" >
   <v>      -0.12638417      -0.15892308      -0.00388971 </v>
   <v>      -0.40246266      -0.01985968       0.08868772 </v>
   <v>       0.31575908      -0.09496805       0.10915933 </v>
   <v>       0.09438810       0.10970737      -0.06797391 </v>
   <v>       0.11869965       0.16404343      -0.12598344 </v>
  </varray>
  <varray name="stress" >
   <v>       0.32557673       0.16159400       0.62879814 </v>
   <v>       0.16159399       0.13913124       0.06502090 </v>
   <v>       0.62879814       0.06502090      -0.43315809 </v>
  </varray>
  <energy>
   <i name="e_fr_energy">    -24.05610519 </i>
   <i name="e_wo_entrp">    -24.05610519 </i>
   <i name="e_0_energy">     -0.00000000 </i>
  </energy>
  <time name="totalsc">    7.74    7.79</time>
 </calculation>
 <calculation>
  <scstep>
   <time name="dav">    0.02    0.02</time>
   <time name="total">    1.18    1.18</time>
   <energy>
    <i name="alphaZ">      0.24225079 </i>
    <i name="ewald">    127.07940042 </i>
    <i name="hartreedc">   -283.44019290 </i>
    <i name="XCdc">     24.68800173 </i>
    <i name="pawpsdc">    429.66536408 </i>
    <i name="pawaedc">   -430.45180009 </i>
    <i name="eentropy">     -0.00000000 </i>
    <i name="bandstr">    -88.89018069 </i>
    <i name="atom">    197.04175453 </i>
    <i name="e_fr_energy">    -24.06540212 </i>
    <i name="e_wo_entrp">    -24.06540212 </i>
    <i name="e_0_energy">    -24.06540212 </i>
   </energy>
  </scstep>
  <scstep>
   <time name="diag">    0.01    0.01</time>
   <time name="diis">    0.02    0.02</time>
   <time name="orth">    0.01    0.01</time>
   <time name="total">    1.15    1.16</time>
   <energy>
    <i name="e_fr_energy">    -24.06523508 </i>
    <i name="e_wo_entrp">    -24.06523508 </i>
    <i name="e_0_energy">    -24.06523508 </i>
   </energy>
  </scstep>
  <scstep>
   <time name="diag">    0.01    0.01</time>
   <time name="diis">    0.02    0.02</time>
   <time name="orth">    0.01    0.01</time>
   <time name="total">    1.11    1.12</time>
   <energy>
    <i name="e_fr_energy">    -24.06517471 </i>
    <i name="e_wo_entrp">    -24.06517471 </i>
    <i name="e_0_energy">    -24.06517471 </i>
   </energy>
  </scstep>
  <scstep>
   <time name="diag">    0.01    0.01</time>
   <time name="diis">    0.02    0.02</time>
   <time name="orth">    0.01    0.01</time>
   <time name="total">    1.14    1.15</time>
   <energy>
    <i name="e_fr_energy">    -24.06512179 </i>
    <i name="e_wo_entrp">    -24.06512179 </i>
    <i name="e_0_energy">    -24.06512179 </i>
   </energy>
  </scstep>
  <scstep>
   <time name="diag">    0.01    0.01</time>
   <time name="diis">    0.02    0.02</time>
   <time name="orth">    0.01    0.01</time>
   <time name="total">    1.14    1.14</time>
   <energy>
    <i name="e_fr_energy">    -24.06513630 </i>
    <i name="e_wo_entrp">    -24.06513630 </i>
    <i name="e_0_energy">    -24.06513630 </i>
   </energy>
  </scstep>
  <scstep>
   <time name="diag">    0.01    0.01</time>
   <time name="diis">    0.02    0.02</time>
   <time name="orth">    0.01    0.01</time>
   <time name="total">    1.14    1.15</time>
   <energy>
    <i name="e_fr_energy">    -24.06513601 </i>
    <i name="e_wo_entrp">    -24.06513601 </i>
    <i name="e_0_energy">    -24.06513601 </i>
   </energy>
  </scstep>
  <scstep>
   <time name="diag">    0.01    0.01</time>
   <time name="diis">    0.02    0.02</time>
   <time name="orth">    0.01    0.01</time>
   <time name="total">    1.15    1.15</time>
   <energy>
    <i name="e_fr_energy">    -24.06514608 </i>
    <i name="e_wo_entrp">    -24.06514608 </i>
    <i name="e_0_energy">    -24.06514608 </i>
   </energy>
  </scstep>
  <scstep>
   <time name="diag">    0.01    0.01</time>
   <time name="diis">    0.02    0.02</time>
   <time name="orth">    0.01    0.01</time>
   <time name="total">    1.16    1.17</time>
   <energy>
    <i name="e_fr_energy">    -24.06514888 </i>
    <i name="e_wo_entrp">    -24.06514888 </i>
    <i name="e_0_energy">    -24.06514888 </i>
   </energy>
  </scstep>
  <scstep>
   <time name="diag">    0.01    0.01</time>
   <time name="diis">    0.02    0.02</time>
   <time name="orth">    0.01    0.01</time>
   <time name="total">    1.18    1.19</time>
   <energy>
    <i name="e_fr_energy">    -24.06515942 </i>
    <i name="e_wo_entrp">    -24.06515942 </i>
    <i name="e_0_energy">    -24.06515942 </i>
   </energy>
  </scstep>
  <scstep>
   <time name="diag">    0.01    0.01</time>
   <time name="diis">    0.02    0.02</time>
   <time name="orth">    0.01    0.01</time>
   <time name="total">    1.07    1.08</time>
   <energy>
    <i name="alphaZ">      0.24225079 </i>
    <i name="ewald">    127.07940042 </i>
    <i name="hartreedc">   -283.07898200 </i>
    <i name="XCdc">     24.66703372 </i>
    <i name="pawpsdc">    405.90499842 </i>
    <i name="pawaedc">   -406.68722561 </i>
    <i name="eentropy">     -0.00000000 </i>
    <i name="bandstr">    -89.23439065 </i>
    <i name="atom">    197.04175453 </i>
    <i name="e_fr_energy">    -24.06516038 </i>
    <i name="e_wo_entrp">    -24.06516038 </i>
    <i name="e_0_energy">    -24.06516038 </i>
   </energy>
  </scstep>
  <structure>
   <crystal>
    <varray name="basis" >
     <v>      10.00000000       0.00000000       0.00000000 </v>
     <v>       0.00000000      10.00000000       0.00000000 </v>
     <v>       0.00000000       0.00000000      10.00000000 </v>
    </varray>
    <i name="volume">   1000.00000000 </i>
    <varray name="rec_basis" >
     <v>       0.10000000       0.00000000       0.00000000 </v>
     <v>       0.00000000       0.10000000       0.00000000 </v>
     <v>       0.00000000       0.00000000       0.10000000 </v>
    </varray>
   </crystal>
   <varray name="positions" >
    <v>       0.53766883       0.40562940       0.35953651 </v>
    <v>       0.39391999       0.48055395       0.44024098 </v>
    <v>       0.55368214       0.56507541       0.44308476 </v>
    <v>       0.52871290       0.41605668       0.53941049 </v>
    <v>       0.50223853       0.46898614       0.44389287 </v>
   </varray>
  </structure>
  <varray name="forces" >
   <v>      -0.05010638       0.05096916       0.22495649 </v>
   <v>      -0.06261108       0.06226270       0.05256207 </v>
   <v>       0.17782537       0.09116512      -0.20777122 </v>
   <v>      -0.24264919       0.32938007      -0.47039598 </v>
   <v>       0.17754129      -0.53377706       0.40064865 </v>
  </varray>
  <varray name="stress" >
   <v>       0.11185519       0.06709153       0.41735661 </v>
   <v>       0.06709153       0.57692977      -0.14359035 </v>
   <v>       0.41735661      -0.14359035      -1.94290480 </v>
  </varray>
  <energy>
   <i name="e_fr_energy">    -24.06516038 </i>
   <i name="e_wo_entrp">    -24.06516038 </i>
   <i name="e_0_energy">     -0.00000000 </i>
  </energy>
  <time name="totalsc">   14.51   14.60</time>
 </calculation>
 <calculation>
  <scstep>
   <time name="dav">    0.03    0.03</time>
   <time name="total">    1.18    1.19</time>
   <energy>
    <i name="alphaZ">      0.24225079 </i>
    <i name="ewald">    127.27841685 </i>
    <i name="hartreedc">   -283.19405910 </i>
    <i name="XCdc">     24.67290372 </i>
    <i name="pawpsdc">    405.92333259 </i>
    <i name="pawaedc">   -406.70553897 </i>
    <i name="eentropy">     -0.00000000 </i>
    <i name="bandstr">    -89.32494962 </i>
    <i name="atom">    197.04175453 </i>
    <i name="e_fr_energy">    -24.06588921 </i>
    <i name="e_wo_entrp">    -24.06588921 </i>
    <i name="e_0_energy">    -24.06588921 </i>
   </energy>
  </scstep>
  <scstep>
   <time name="diag">    0.01    0.01</time>
   <time name="diis">    0.02    0.02</time>
   <time name="orth">    0.01    0.01</time>
   <time name="total">    1.20    1.20</time>
   <energy>
    <i name="e_fr_energy">    -24.06587329 </i>
    <i name="e_wo_entrp">    -24.06587329 </i>
    <i name="e_0_energy">    -24.06587329 </i>
   </energy>
  </scstep>
  <scstep>
   <time name="diag">    0.01    0.01</time>
   <time name="diis">    0.02    0.02</time>
   <time name="orth">    0.01    0.01</time>
   <time name="total">    1.22    1.22</time>
   <energy>
    <i name="e_fr_energy">    -24.06587426 </i>
    <i name="e_wo_entrp">    -24.06587426 </i>
    <i name="e_0_energy">    -24.06587426 </i>
   </energy>
  </scstep>
  <scstep>
   <time name="diag">    0.01    0.01</time>
   <time name="diis">    0.02    0.02</time>
   <time name="orth">    0.01    0.01</time>
   <time name="total">    1.12    1.13</time>
   <energy>
    <i name="alphaZ">      0.24225079 </i>
    <i name="ewald">    127.27841685 </i>
    <i name="hartreedc">   -283.25362571 </i>
    <i name="XCdc">     24.67634377 </i>
    <i name="pawpsdc">    408.98049211 </i>
    <i name="pawaedc">   -409.76338923 </i>
    <i name="eentropy">     -0.00000000 </i>
    <i name="bandstr">    -89.26811683 </i>
    <i name="atom">    197.04175453 </i>
    <i name="e_fr_energy">    -24.06587372 </i>
    <i name="e_wo_entrp">    -24.06587372 </i>
    <i name="e_0_energy">    -24.06587372 </i>
   </energy>
  </scstep>
  <structure>
   <crystal>
    <varray name="basis" >
     <v>      10.00000000       0.00000000       0.00000000 </v>
     <v>       0.00000000      10.00000000       0.00000000 </v>
     <v>       0.00000000       0.00000000      10.00000000 </v>
    </varray>
    <i name="volume">   1000.00000000 </i>
    <varray name="rec_basis" >
     <v>       0.10000000       0.00000000       0.00000000 </v>
     <v>       0.00000000       0.10000000       0.00000000 </v>
     <v>       0.00000000       0.00000000       0.10000000 </v>
    </varray>
   </crystal>
   <varray name="positions" >
    <v>       0.53774971       0.40576689       0.35959788 </v>
    <v>       0.39412416       0.48054881       0.44010172 </v>
    <v>       0.55345834       0.56513676       0.44301740 </v>
    <v>       0.52864298       0.41603140       0.53942581 </v>
    <v>       0.50224718       0.46881771       0.44402280 </v>
   </varray>
  </structure>
  <varray name="forces" >
   <v>      -0.05933321      -0.05160538       0.15701548 </v>
   <v>      -0.13325175       0.01477450       0.14637321 </v>
   <v>       0.19518682       0.07595870      -0.18898434 </v>
   <v>      -0.17236639       0.32169804      -0.38656135 </v>
   <v>       0.16976452      -0.36082586       0.27215700 </v>
  </varray>
  <varray name="stress" >
   <v>       0.20184725       0.08244532       0.46452636 </v>
   <v>       0.08244532       0.63064451      -0.11522743 </v>
   <v>       0.46452636      -0.11522743      -1.63026555 </v>
  </varray>
  <energy>
   <i name="e_fr_energy">    -24.06587372 </i>
   <i name="e_wo_entrp">    -24.06587372 </i>
   <i name="e_0_energy">     -0.00000000 </i>
  </energy>
  <time name="totalsc">    7.86    7.90</time>
 </calculation>
 <calculation>
  <scstep>
   <time name="dav">    0.03    0.03</time>
   <time name="total">    1.22    1.22</time>
   <energy>
    <i name="alphaZ">      0.24225079 </i>
    <i name="ewald">    126.99017093 </i>
    <i name="hartreedc">   -283.09194208 </i>
    <i name="XCdc">     24.66790434 </i>
    <i name="pawpsdc">    409.14022153 </i>
    <i name="pawaedc">   -409.92308267 </i>
    <i name="eentropy">     -0.00000000 </i>
    <i name="bandstr">    -89.13550486 </i>
    <i name="atom">    197.04175453 </i>
    <i name="e_fr_energy">    -24.06822748 </i>
    <i name="e_wo_entrp">    -24.06822748 </i>
    <i name="e_0_energy">    -24.06822748 </i>
   </energy>
  </scstep>
  <scstep>
   <time name="diag">    0.01    0.01</time>
   <time name="diis">    0.02    0.02</time>
   <time name="orth">    0.01    0.01</time>
   <time name="total">    1.21    1.22</time>
   <energy>
    <i name="e_fr_energy">    -24.06819721 </i>
    <i name="e_wo_entrp">    -24.06819721 </i>
    <i name="e_0_energy">    -24.06819721 </i>
   </energy>
  </scstep>
  <scstep>
   <time name="diag">    0.01    0.01</time>
   <time name="diis">    0.02    0.02</time>
   <time name="orth">    0.01    0.01</time>
   <time name="total">    1.17    1.17</time>
   <energy>
    <i name="e_fr_energy">    -24.06816488 </i>
    <i name="e_wo_entrp">    -24.06816488 </i>
    <i name="e_0_energy">    -24.06816488 </i>
   </energy>
  </scstep>
  <scstep>
   <time name="diag">    0.01    0.01</time>
   <time name="diis">    0.02    0.02</time>
   <time name="orth">    0.01    0.01</time>
   <time name="total">    1.18    1.19</time>
   <energy>
    <i name="e_fr_energy">    -24.06815993 </i>
    <i name="e_wo_entrp">    -24.06815993 </i>
    <i name="e_0_energy">    -24.06815993 </i>
   </energy>
  </scstep>
  <scstep>
   <time name="diag">    0.01    0.01</time>
   <time name="diis">    0.02    0.02</time>
   <time name="orth">    0.01    0.01</time>
   <time name="total">    1.17    1.18</time>
   <energy>
    <i name="e_fr_energy">    -24.06815854 </i>
    <i name="e_wo_entrp">    -24.06815854 </i>
    <i name="e_0_energy">    -24.06815854 </i>
   </energy>
  </scstep>
  <scstep>
   <time name="diag">    0.01    0.01</time>
   <time name="diis">    0.02    0.02</time>
   <time name="orth">    0.01    0.01</time>
   <time name="total">    1.18    1.20</time>
   <energy>
    <i name="e_fr_energy">    -24.06816077 </i>
    <i name="e_wo_entrp">    -24.06816077 </i>
    <i name="e_0_energy">    -24.06816077 </i>
   </energy>
  </scstep>
  <scstep>
   <time name="diag">    0.01    0.01</time>
   <time name="diis">    0.02    0.02</time>
   <time name="orth">    0.01    0.01</time>
   <time name="total">    1.18    1.19</time>
   <energy>
    <i name="e_fr_energy">    -24.06815964 </i>
    <i name="e_wo_entrp">    -24.06815964 </i>
    <i name="e_0_energy">    -24.06815964 </i>
   </energy>
  </scstep>
  <scstep>
   <time name="diag">    0.01    0.01</time>
   <time name="diis">    0.02    0.02</time>
   <time name="orth">    0.01    0.01</time>
   <time name="total">    1.08    1.08</time>
   <energy>
    <i name="alphaZ">      0.24225079 </i>
    <i name="ewald">    126.99017093 </i>
    <i name="hartreedc">   -283.00882809 </i>
    <i name="XCdc">     24.66292407 </i>
    <i name="pawpsdc">    409.44029661 </i>
    <i name="pawaedc">   -410.22207700 </i>
    <i name="eentropy">     -0.00000000 </i>
    <i name="bandstr">    -89.21465233 </i>
    <i name="atom">    197.04175453 </i>
    <i name="e_fr_energy">    -24.06816048 </i>
    <i name="e_wo_entrp">    -24.06816048 </i>
    <i name="e_0_energy">    -24.06816048 </i>
   </energy>
  </scstep>
  <structure>
   <crystal>
    <varray name="basis" >
     <v>      10.00000000       0.00000000       0.00000000 </v>
     <v>       0.00000000      10.00000000       0.00000000 </v>
     <v>       0.00000000       0.00000000      10.00000000 </v>
    </varray>
    <i name="volume">   1000.00000000 </i>
    <varray name="rec_basis" >
     <v>       0.10000000       0.00000000       0.00000000 </v>
     <v>       0.00000000       0.10000000       0.00000000 </v>
     <v>       0.00000000       0.00000000       0.10000000 </v>
    </varray>
   </crystal>
   <varray name="positions" >
    <v>       0.53746275       0.40534004       0.35963015 </v>
    <v>       0.39342024       0.48058066       0.44065050 </v>
    <v>       0.55429069       0.56506876       0.44296141 </v>
    <v>       0.52861429       0.41649619       0.53890705 </v>
    <v>       0.50243441       0.46881592       0.44401651 </v>
   </varray>
  </structure>
  <varray name="forces" >
   <v>       0.01586626       0.21256551       0.23872090 </v>
   <v>       0.16090514       0.15139954      -0.06474612 </v>
   <v>       0.00541883      -0.12138413      -0.11059039 </v>
   <v>      -0.02314382      -0.12756108      -0.09471777 </v>
   <v>      -0.15904641      -0.11501985       0.03133338 </v>
  </varray>
  <varray name="stress" >
   <v>       0.02367329      -0.05249757       0.52389744 </v>
   <v>      -0.05249757       0.64061267      -0.63891282 </v>
   <v>       0.52389744      -0.63891282      -1.56129941 </v>
  </varray>
  <energy>
   <i name="e_fr_energy">    -24.06816048 </i>
   <i name="e_wo_entrp">    -24.06816048 </i>
   <i name="e_0_energy">     -0.00000000 </i>
  </energy>
  <time name="totalsc">   12.46   12.55</time>
 </calculation>
 <calculation>
  <scstep>
   <time name="dav">    0.03    0.03</time>
   <time name="total">    1.18    1.18</time>
   <energy>
    <i name="alphaZ">      0.24225079 </i>
    <i name="ewald">    127.07120822 </i>
    <i name="hartreedc">   -283.05336182 </i>
    <i name="XCdc">     24.66525041 </i>
    <i name="pawpsdc">    409.45737374 </i>
    <i name="pawaedc">   -410.23915314 </i>
    <i name="eentropy">     -0.00000000 </i>
    <i name="bandstr">    -89.25387429 </i>
    <i name="atom">    197.04175453 </i>
    <i name="e_fr_energy">    -24.06855156 </i>
    <i name="e_wo_entrp">    -24.06855156 </i>
    <i name="e_0_energy">    -24.06855156 </i>
   </energy>
  </scstep>
  <scstep>
   <time name="diag">    0.01    0.01</time>
   <time name="diis">    0.02    0.02</time>
   <time name="orth">    0.01    0.01</time>
   <time name="total">    1.20    1.20</time>
   <energy>
    <i name="e_fr_energy">    -24.06855122 </i>
    <i name="e_wo_entrp">    -24.06855122 </i>
    <i name="e_0_energy">    -24.06855122 </i>
   </energy>
  </scstep>
  <scstep>
   <time name="diag">    0.01    0.01</time>
   <time name="diis">    0.02    0.02</time>
   <time name="orth">    0.01    0.01</time>
   <time name="total">    1.21    1.22</time>
   <energy>
    <i name="e_fr_energy">    -24.06855100 </i>
    <i name="e_wo_entrp">    -24.06855100 </i>
    <i name="e_0_energy">    -24.06855100 </i>
   </energy>
  </scstep>
  <scstep>
   <time name="diag">    0.01    0.01</time>
   <time name="diis">    0.02    0.02</time>
   <time name="orth">    0.01    0.01</time>
   <time name="total">    1.11    1.12</time>
   <energy>
    <i name="alphaZ">      0.24225079 </i>
    <i name="ewald">    127.07120822 </i>
    <i name="hartreedc">   -283.07982591 </i>
    <i name="XCdc">     24.66680416 </i>
    <i name="pawpsdc">    409.42105727 </i>
    <i name="pawaedc">   -410.20319468 </i>
    <i name="eentropy">     -0.00000000 </i>
    <i name="bandstr">    -89.22860554 </i>
    <i name="atom">    197.04175453 </i>
    <i name="e_fr_energy">    -24.06855117 </i>
    <i name="e_wo_entrp">    -24.06855117 </i>
    <i name="e_0_energy">    -24.06855117 </i>
   </energy>
  </scstep>
  <structure>
   <crystal>
    <varray name="basis" >
     <v>      10.00000000       0.00000000       0.00000000 </v>
     <v>       0.00000000      10.00000000       0.00000000 </v>
     <v>       0.00000000       0.00000000      10.00000000 </v>
    </varray>
    <i name="volume">   1000.00000000 </i>
    <varray name="rec_basis" >
     <v>       0.10000000       0.00000000       0.00000000 </v>
     <v>       0.00000000       0.10000000       0.00000000 </v>
     <v>       0.00000000       0.00000000       0.10000000 </v>
    </varray>
   </crystal>
   <varray name="positions" >
    <v>       0.53754409       0.40546104       0.35962100 </v>
    <v>       0.39361977       0.48057164       0.44049494 </v>
    <v>       0.55405475       0.56508803       0.44297728 </v>
    <v>       0.52862242       0.41636444       0.53905410 </v>
    <v>       0.50238134       0.46881643       0.44401829 </v>
   </varray>
  </structure>
  <varray name="forces" >
   <v>      -0.00372108       0.13825093       0.22593650 </v>
   <v>       0.07658617       0.14514604      -0.04033999 </v>
   <v>       0.04375459      -0.10297046      -0.11488709 </v>
   <v>      -0.05590873      -0.01913094      -0.16722101 </v>
   <v>      -0.06071095      -0.16129557       0.09651159 </v>
  </varray>
  <varray name="stress" >
   <v>       0.02130846      -0.02001393       0.53952418 </v>
   <v>      -0.02001393       0.65663702      -0.47060473 </v>
   <v>       0.53952419      -0.47060473      -1.65740485 </v>
  </varray>
  <energy>
   <i name="e_fr_energy">    -24.06855117 </i>
   <i name="e_wo_entrp">    -24.06855117 </i>
   <i name="e_0_energy">     -0.00000000 </i>
  </energy>
  <time name="totalsc">    7.82    7.87</time>
 </calculation>
 <calculation>
  <scstep>
   <time name="dav">    0.03    0.03</time>
   <time name="total">    1.22    1.22</time>
   <energy>
    <i name="alphaZ">      0.24225079 </i>
    <i name="ewald">    127.41863926 </i>
    <i name="hartreedc">   -283.28013540 </i>
    <i name="XCdc">     24.67691971 </i>
    <i name="pawpsdc">    409.34599607 </i>
    <i name="pawaedc">   -410.12806830 </i>
    <i name="eentropy">     -0.00000000 </i>
    <i name="bandstr">    -89.38722900 </i>
    <i name="atom">    197.04175453 </i>
    <i name="e_fr_energy">    -24.06987234 </i>
    <i name="e_wo_entrp">    -24.06987234 </i>
    <i name="e_0_energy">    -24.06987234 </i>
   </energy>
  </scstep>
  <scstep>
   <time name="diag">    0.01    0.01</time>
   <time name="diis">    0.02    0.02</time>
   <time name="orth">    0.01    0.01</time>
   <time name="total">    1.24    1.25</time>
   <energy>
    <i name="e_fr_energy">    -24.06982437 </i>
    <i name="e_wo_entrp">    -24.06982437 </i>
    <i name="e_0_energy">    -24.06982437 </i>
   </energy>
  </scstep>
  <scstep>
   <time name="diag">    0.01    0.01</time>
   <time name="diis">    0.02    0.02</time>
   <time name="orth">    0.01    0.01</time>
   <time name="total">    1.24    1.25</time>
   <energy>
    <i name="e_fr_energy">    -24.06982143 </i>
    <i name="e_wo_entrp">    -24.06982143 </i>
    <i name="e_0_energy">    -24.06982143 </i>
   </energy>
  </scstep>
  <scstep>
   <time name="diag">    0.01    0.01</time>
   <time name="diis">    0.02    0.02</time>
   <time name="orth">    0.01    0.01</time>
   <time name="total">    1.15    1.16</time>
   <energy>
    <i name="alphaZ">      0.24225079 </i>
    <i name="ewald">    127.41863926 </i>
    <i name="hartreedc">   -283.38310174 </i>
    <i name="XCdc">     24.68280234 </i>
    <i name="pawpsdc">    412.90111852 </i>
    <i name="pawaedc">   -413.68436232 </i>
    <i name="eentropy">     -0.00000000 </i>
    <i name="bandstr">    -89.28892238 </i>
    <i name="atom">    197.04175453 </i>
    <i name="e_fr_energy">    -24.06982100 </i>
    <i name="e_wo_entrp">    -24.06982100 </i>
    <i name="e_0_energy">    -24.06982100 </i>
   </energy>
  </scstep>
  <structure>
   <crystal>
    <varray name="basis" >
     <v>      10.00000000       0.00000000       0.00000000 </v>
     <v>       0.00000000      10.00000000       0.00000000 </v>
     <v>       0.00000000       0.00000000      10.00000000 </v>
    </varray>
    <i name="volume">   1000.00000000 </i>
    <varray name="rec_basis" >
     <v>       0.10000000       0.00000000       0.00000000 </v>
     <v>       0.00000000       0.10000000       0.00000000 </v>
     <v>       0.00000000       0.00000000       0.10000000 </v>
    </varray>
   </crystal>
   <varray name="positions" >
    <v>       0.53753340       0.40561296       0.35988543 </v>
    <v>       0.39369359       0.48074175       0.44046000 </v>
    <v>       0.55412424       0.56496634       0.44284194 </v>
    <v>       0.52855653       0.41635240       0.53884744 </v>
    <v>       0.50231462       0.46862813       0.44413080 </v>
   </varray>
  </structure>
  <varray name="forces" >
   <v>      -0.00967769      -0.04618123      -0.04444334 </v>
   <v>       0.03868946       0.15397872       0.07570997 </v>
   <v>       0.02641739      -0.05430076      -0.06973297 </v>
   <v>       0.00507507      -0.13832956      -0.01774738 </v>
   <v>      -0.06050423       0.08483283       0.05621372 </v>
  </varray>
  <varray name="stress" >
   <v>       0.11311884      -0.05961000       0.57857867 </v>
   <v>      -0.05961000       0.94149462      -0.48878079 </v>
   <v>       0.57857867      -0.48878079      -1.16926646 </v>
  </varray>
  <energy>
   <i name="e_fr_energy">    -24.06982100 </i>
   <i name="e_wo_entrp">    -24.06982100 </i>
   <i name="e_0_energy">     -0.00000000 </i>
  </energy>
  <time name="totalsc">    8.00    8.04</time>
 </calculation>
 <calculation>
  <scstep>
   <time name="dav">    0.03    0.03</time>
   <time name="total">    1.24    1.24</time>
   <energy>
    <i name="alphaZ">      0.24225079 </i>
    <i name="ewald">    127.46055111 </i>
    <i name="hartreedc">   -283.40756069 </i>
    <i name="XCdc">     24.68410672 </i>
    <i name="pawpsdc">    413.15455762 </i>
    <i name="pawaedc">   -413.93778348 </i>
    <i name="eentropy">     -0.00000000 </i>
    <i name="bandstr">    -89.30771492 </i>
    <i name="atom">    197.04175453 </i>
    <i name="e_fr_energy">    -24.06983832 </i>
    <i name="e_wo_entrp">    -24.06983832 </i>
    <i name="e_0_energy">    -24.06983832 </i>
   </energy>
  </scstep>
  <scstep>
   <time name="diag">    0.01    0.01</time>
   <time name="diis">    0.02    0.02</time>
   <time name="orth">    0.01    0.01</time>
   <time name="total">    1.24    1.25</time>
   <energy>
    <i name="e_fr_energy">    -24.06983746 </i>
    <i name="e_wo_entrp">    -24.06983746 </i>
    <i name="e_0_energy">    -24.06983746 </i>
   </energy>
  </scstep>
  <scstep>
   <time name="diag">    0.01    0.01</time>
   <time name="diis">    0.02    0.02</time>
   <time name="orth">    0.01    0.01</time>
   <time name="total">    1.24    1.25</time>
   <energy>
    <i name="e_fr_energy">    -24.06983796 </i>
    <i name="e_wo_entrp">    -24.06983796 </i>
    <i name="e_0_energy">    -24.06983796 </i>
   </energy>
  </scstep>
  <scstep>
   <time name="diag">    0.01    0.01</time>
   <time name="diis">    0.02    0.02</time>
   <time name="orth">    0.01    0.01</time>
   <time name="total">    1.14    1.15</time>
   <energy>
    <i name="alphaZ">      0.24225079 </i>
    <i name="ewald">    127.46055111 </i>
    <i name="hartreedc">   -283.42344127 </i>
    <i name="XCdc">     24.68494759 </i>
    <i name="pawpsdc">    413.64881051 </i>
    <i name="pawaedc">   -414.43222076 </i>
    <i name="eentropy">     -0.00000000 </i>
    <i name="bandstr">    -89.29249103 </i>
    <i name="atom">    197.04175453 </i>
    <i name="e_fr_energy">    -24.06983852 </i>
    <i name="e_wo_entrp">    -24.06983852 </i>
    <i name="e_0_energy">    -24.06983852 </i>
   </energy>
  </scstep>
  <structure>
   <crystal>
    <varray name="basis" >
     <v>      10.00000000       0.00000000       0.00000000 </v>
     <v>       0.00000000      10.00000000       0.00000000 </v>
     <v>       0.00000000       0.00000000      10.00000000 </v>
    </varray>
    <i name="volume">   1000.00000000 </i>
    <varray name="rec_basis" >
     <v>       0.10000000       0.00000000       0.00000000 </v>
     <v>       0.00000000       0.10000000       0.00000000 </v>
     <v>       0.00000000       0.00000000       0.10000000 </v>
    </varray>
   </crystal>
   <varray name="positions" >
    <v>       0.53753211       0.40563126       0.35991728 </v>
    <v>       0.39370248       0.48076225       0.44045579 </v>
    <v>       0.55413261       0.56495168       0.44282564 </v>
    <v>       0.52854859       0.41635095       0.53882254 </v>
    <v>       0.50230658       0.46860544       0.44414435 </v>
   </varray>
  </structure>
  <varray name="forces" >
   <v>      -0.01864293      -0.05646137      -0.07117376 </v>
   <v>       0.03655727       0.14860962       0.08953092 </v>
   <v>       0.02718680      -0.04885754      -0.06192000 </v>
   <v>       0.01282077      -0.15375575      -0.00299187 </v>
   <v>      -0.05792192       0.11046504       0.04655471 </v>
  </varray>
  <varray name="stress" >
   <v>       0.11390550      -0.05806750       0.58631029 </v>
   <v>      -0.05806751       0.96317418      -0.48957516 </v>
   <v>       0.58631029      -0.48957516      -1.11870273 </v>
  </varray>
  <energy>
   <i name="e_fr_energy">    -24.06983852 </i>
   <i name="e_wo_entrp">    -24.06983852 </i>
   <i name="e_0_energy">     -0.00000000 </i>
  </energy>
  <time name="totalsc">    8.01    8.06</time>
 </calculation>
 <calculation>
  <scstep>
   <time name="dav">    0.02    0.02</time>
   <time name="total">    1.23    1.24</time>
   <energy>
    <i name="alphaZ">      0.24225079 </i>
    <i name="ewald">    127.54777232 </i>
    <i name="hartreedc">   -283.47290296 </i>
    <i name="XCdc">     24.68747285 </i>
    <i name="pawpsdc">    413.66909900 </i>
    <i name="pawaedc">   -414.45249983 </i>
    <i name="eentropy">     -0.00000000 </i>
    <i name="bandstr">    -89.33366982 </i>
    <i name="atom">    197.04175453 </i>
    <i name="e_fr_energy">    -24.07072312 </i>
    <i name="e_wo_entrp">    -24.07072312 </i>
    <i name="e_0_energy">    -24.07072312 </i>
   </energy>
  </scstep>
  <scstep>
   <time name="diag">    0.01    0.01</time>
   <time name="diis">    0.02    0.02</time>
   <time name="orth">    0.01    0.01</time>
   <time name="total">    1.24    1.24</time>
   <energy>
    <i name="e_fr_energy">    -24.07072850 </i>
    <i name="e_wo_entrp">    -24.07072850 </i>
    <i name="e_0_energy">    -24.07072850 </i>
   </energy>
  </scstep>
  <scstep>
   <time name="diag">    0.01    0.01</time>
   <time name="diis">    0.02    0.02</time>
   <time name="orth">    0.01    0.01</time>
   <time name="total">    1.24    1.25</time>
   <energy>
    <i name="e_fr_energy">    -24.07072838 </i>
    <i name="e_wo_entrp">    -24.07072838 </i>
    <i name="e_0_energy">    -24.07072838 </i>
   </energy>
  </scstep>
  <scstep>
   <time name="diag">    0.01    0.01</time>
   <time name="diis">    0.02    0.02</time>
   <time name="orth">    0.01    0.01</time>
   <time name="total">    1.13    1.14</time>
   <energy>
    <i name="alphaZ">      0.24225079 </i>
    <i name="ewald">    127.54777232 </i>
    <i name="hartreedc">   -283.50099584 </i>
    <i name="XCdc">     24.68908309 </i>
    <i name="pawpsdc">    412.96171042 </i>
    <i name="pawaedc">   -413.74543307 </i>
    <i name="eentropy">     -0.00000000 </i>
    <i name="bandstr">    -89.30687064 </i>
    <i name="atom">    197.04175453 </i>
    <i name="e_fr_energy">    -24.07072840 </i>
    <i name="e_wo_entrp">    -24.07072840 </i>
    <i name="e_0_energy">    -24.07072840 </i>
   </energy>
  </scstep>
  <structure>
   <crystal>
    <varray name="basis" >
     <v>      10.00000000       0.00000000       0.00000000 </v>
     <v>       0.00000000      10.00000000       0.00000000 </v>
     <v>       0.00000000       0.00000000      10.00000000 </v>
    </varray>
    <i name="volume">   1000.00000000 </i>
    <varray name="rec_basis" >
     <v>       0.10000000       0.00000000       0.00000000 </v>
     <v>       0.00000000       0.10000000       0.00000000 </v>
     <v>       0.00000000       0.00000000       0.10000000 </v>
    </varray>
   </crystal>
   <varray name="positions" >
    <v>       0.53750503       0.40563189       0.35995077 </v>
    <v>       0.39377928       0.48101616       0.44054714 </v>
    <v>       0.55419627       0.56483872       0.44269094 </v>
    <v>       0.52853437       0.41616176       0.53872630 </v>
    <v>       0.50220743       0.46865305       0.44425045 </v>
   </varray>
  </structure>
  <varray name="forces" >
   <v>      -0.03226734      -0.08989785      -0.06172198 </v>
   <v>      -0.01987575       0.14211879       0.11583677 </v>
   <v>       0.03119021       0.05391043      -0.03511557 </v>
   <v>       0.01103386      -0.09810585      -0.01771271 </v>
   <v>       0.00991901      -0.00802552      -0.00128651 </v>
  </varray>
  <varray name="stress" >
   <v>       0.26009564      -0.08557068       0.60289803 </v>
   <v>      -0.08557068       1.02417304      -0.46451558 </v>
   <v>       0.60289804      -0.46451558      -1.02375453 </v>
  </varray>
  <energy>
   <i name="e_fr_energy">    -24.07072840 </i>
   <i name="e_wo_entrp">    -24.07072840 </i>
   <i name="e_0_energy">     -0.00000000 </i>
  </energy>
  <time name="totalsc">    7.96    8.02</time>
 </calculation>
 <calculation>
  <scstep>
   <time name="dav">    0.03    0.03</time>
   <time name="total">    1.22    1.23</time>
   <energy>
    <i name="alphaZ">      0.24225079 </i>
    <i name="ewald">    127.61347545 </i>
    <i name="hartreedc">   -283.53408089 </i>
    <i name="XCdc">     24.69079974 </i>
    <i name="pawpsdc">    412.92194397 </i>
    <i name="pawaedc">   -413.70560828 </i>
    <i name="eentropy">     -0.00000000 </i>
    <i name="bandstr">    -89.34156443 </i>
    <i name="atom">    197.04175453 </i>
    <i name="e_fr_energy">    -24.07102911 </i>
    <i name="e_wo_entrp">    -24.07102911 </i>
    <i name="e_0_energy">    -24.07102911 </i>
   </energy>
  </scstep>
  <scstep>
   <time name="diag">    0.01    0.01</time>
   <time name="diis">    0.02    0.02</time>
   <time name="orth">    0.01    0.01</time>
   <time name="total">    1.22    1.23</time>
   <energy>
    <i name="e_fr_energy">    -24.07102754 </i>
    <i name="e_wo_entrp">    -24.07102754 </i>
    <i name="e_0_energy">    -24.07102754 </i>
   </energy>
  </scstep>
  <scstep>
   <time name="diag">    0.01    0.01</time>
   <time name="diis">    0.02    0.02</time>
   <time name="orth">    0.01    0.01</time>
   <time name="total">    1.22    1.22</time>
   <energy>
    <i name="e_fr_energy">    -24.07102807 </i>
    <i name="e_wo_entrp">    -24.07102807 </i>
    <i name="e_0_energy">    -24.07102807 </i>
   </energy>
  </scstep>
  <scstep>
   <time name="diag">    0.01    0.01</time>
   <time name="diis">    0.02    0.02</time>
   <time name="orth">    0.01    0.01</time>
   <time name="total">    1.12    1.13</time>
   <energy>
    <i name="alphaZ">      0.24225079 </i>
    <i name="ewald">    127.61347545 </i>
    <i name="hartreedc">   -283.55673524 </i>
    <i name="XCdc">     24.69205658 </i>
    <i name="pawpsdc">    412.43904176 </i>
    <i name="pawaedc">   -413.22296606 </i>
    <i name="eentropy">     -0.00000000 </i>
    <i name="bandstr">    -89.31990617 </i>
    <i name="atom">    197.04175453 </i>
    <i name="e_fr_energy">    -24.07102835 </i>
    <i name="e_wo_entrp">    -24.07102835 </i>
    <i name="e_0_energy">    -24.07102835 </i>
   </energy>
  </scstep>
  <structure>
   <crystal>
    <varray name="basis" >
     <v>      10.00000000       0.00000000       0.00000000 </v>
     <v>       0.00000000      10.00000000       0.00000000 </v>
     <v>       0.00000000       0.00000000      10.00000000 </v>
    </varray>
    <i name="volume">   1000.00000000 </i>
    <varray name="rec_basis" >
     <v>       0.10000000       0.00000000       0.00000000 </v>
     <v>       0.00000000       0.10000000       0.00000000 </v>
     <v>       0.00000000       0.00000000       0.10000000 </v>
    </varray>
   </crystal>
   <varray name="positions" >
    <v>       0.53748445       0.40563237       0.35997622 </v>
    <v>       0.39383763       0.48120912       0.44061656 </v>
    <v>       0.55424464       0.56475287       0.44258859 </v>
    <v>       0.52852357       0.41601799       0.53865317 </v>
    <v>       0.50213208       0.46868923       0.44433107 </v>
   </varray>
  </structure>
  <varray name="forces" >
   <v>      -0.04000271      -0.12413124      -0.05195596 </v>
   <v>      -0.07105221       0.13651362       0.11195501 </v>
   <v>       0.04035296       0.12417439       0.01888843 </v>
   <v>       0.00531916      -0.02588749      -0.03749989 </v>
   <v>       0.06538280      -0.11066928      -0.04138759 </v>
  </varray>
  <varray name="stress" >
   <v>       0.35827718      -0.10554200       0.62343008 </v>
   <v>      -0.10554200       1.06273684      -0.42773421 </v>
   <v>       0.62343008      -0.42773422      -0.92377397 </v>
  </varray>
  <energy>
   <i name="e_fr_energy">    -24.07102835 </i>
   <i name="e_wo_entrp">    -24.07102835 </i>
   <i name="e_0_energy">     -0.00000000 </i>
  </energy>
  <time name="totalsc">    7.91    7.95</time>
 </calculation>
 <calculation>
  <scstep>
   <time name="dav">    0.02    0.02</time>
   <time name="total">    1.20    1.21</time>
   <energy>
    <i name="alphaZ">      0.24225079 </i>
    <i name="ewald">    127.52196377 </i>
    <i name="hartreedc">   -283.50126145 </i>
    <i name="XCdc">     24.68927795 </i>
    <i name="pawpsdc">    412.42627838 </i>
    <i name="pawaedc">   -413.21016704 </i>
    <i name="eentropy">     -0.00000000 </i>
    <i name="bandstr">    -89.28179469 </i>
    <i name="atom">    197.04175453 </i>
    <i name="e_fr_energy">    -24.07169776 </i>
    <i name="e_wo_entrp">    -24.07169776 </i>
    <i name="e_0_energy">    -24.07169776 </i>
   </energy>
  </scstep>
  <scstep>
   <time name="diag">    0.01    0.01</time>
   <time name="diis">    0.02    0.02</time>
   <time name="orth">    0.01    0.01</time>
   <time name="total">    1.21    1.22</time>
   <energy>
    <i name="e_fr_energy">    -24.07169939 </i>
    <i name="e_wo_entrp">    -24.07169939 </i>
    <i name="e_0_energy">    -24.07169939 </i>
   </energy>
  </scstep>
  <scstep>
   <time name="diag">    0.01    0.01</time>
   <time name="diis">    0.02    0.02</time>
   <time name="orth">    0.01    0.01</time>
   <time name="total">    1.21    1.22</time>
   <energy>
    <i name="e_fr_energy">    -24.07170033 </i>
    <i name="e_wo_entrp">    -24.07170033 </i>
    <i name="e_0_energy">    -24.07170033 </i>
   </energy>
  </scstep>
  <scstep>
   <time name="diag">    0.01    0.01</time>
   <time name="diis">    0.02    0.02</time>
   <time name="orth">    0.01    0.01</time>
   <time name="total">    1.11    1.12</time>
   <energy>
    <i name="alphaZ">      0.24225079 </i>
    <i name="ewald">    127.52196377 </i>
    <i name="hartreedc">   -283.47435101 </i>
    <i name="XCdc">     24.68772515 </i>
    <i name="pawpsdc">    412.79579793 </i>
    <i name="pawaedc">   -413.57938856 </i>
    <i name="eentropy">     -0.00000000 </i>
    <i name="bandstr">    -89.30745303 </i>
    <i name="atom">    197.04175453 </i>
    <i name="e_fr_energy">    -24.07170043 </i>
    <i name="e_wo_entrp">    -24.07170043 </i>
    <i name="e_0_energy">    -24.07170043 </i>
   </energy>
  </scstep>
  <structure>
   <crystal>
    <varray name="basis" >
     <v>      10.00000000       0.00000000       0.00000000 </v>
     <v>       0.00000000      10.00000000       0.00000000 </v>
     <v>       0.00000000       0.00000000      10.00000000 </v>
    </varray>
    <i name="volume">   1000.00000000 </i>
    <varray name="rec_basis" >
     <v>       0.10000000       0.00000000       0.00000000 </v>
[...]
   <time name="diis">    0.02    0.02</time>
   <time name="orth">    0.01    0.01</time>
   <time name="total">    1.21    1.22</time>
   <energy>
    <i name="e_fr_energy">    -24.08755636 </i>
    <i name="e_wo_entrp">    -24.08755636 </i>
    <i name="e_0_energy">    -24.08755636 </i>
   </energy>
  </scstep>
  <scstep>
   <time name="diag">    0.01    0.01</time>
   <time name="diis">    0.02    0.02</time>
   <time name="orth">    0.01    0.01</time>
   <time name="total">    1.22    1.22</time>
   <energy>
    <i name="e_fr_energy">    -24.08755640 </i>
    <i name="e_wo_entrp">    -24.08755640 </i>
    <i name="e_0_energy">    -24.08755640 </i>
   </energy>
  </scstep>
  <scstep>
   <time name="diag">    0.01    0.01</time>
   <time name="diis">    0.02    0.02</time>
   <time name="orth">    0.01    0.01</time>
   <time name="total">    1.12    1.12</time>
   <energy>
    <i name="alphaZ">      0.24225079 </i>
    <i name="ewald">    126.58227243 </i>
    <i name="hartreedc">   -282.65320861 </i>
    <i name="XCdc">     24.64369706 </i>
    <i name="pawpsdc">    399.92856693 </i>
    <i name="pawaedc">   -400.70913590 </i>
    <i name="eentropy">     -0.00000000 </i>
    <i name="bandstr">    -89.16375364 </i>
    <i name="atom">    197.04175453 </i>
    <i name="e_fr_energy">    -24.08755641 </i>
    <i name="e_wo_entrp">    -24.08755641 </i>
    <i name="e_0_energy">    -24.08755641 </i>
   </energy>
  </scstep>
  <structure>
   <crystal>
    <varray name="basis" >
     <v>      10.00000000       0.00000000       0.00000000 </v>
     <v>       0.00000000      10.00000000       0.00000000 </v>
     <v>       0.00000000       0.00000000      10.00000000 </v>
    </varray>
    <i name="volume">   1000.00000000 </i>
    <varray name="rec_basis" >
     <v>       0.10000000       0.00000000       0.00000000 </v>
     <v>       0.00000000       0.10000000       0.00000000 </v>
     <v>       0.00000000       0.00000000       0.10000000 </v>
    </varray>
   </crystal>
   <varray name="positions" >
    <v>       0.53658622       0.40541489       0.35984781 </v>
    <v>       0.39261074       0.48262800       0.44244815 </v>
    <v>       0.55636012       0.56503257       0.44306430 </v>
    <v>       0.52872882       0.41434691       0.53670257 </v>
    <v>       0.50193647       0.46887922       0.44410278 </v>
   </varray>
  </structure>
  <varray name="forces" >
   <v>      -0.00898809      -0.00127065       0.00480284 </v>
   <v>      -0.00022758       0.00229464      -0.00406560 </v>
   <v>       0.01446085       0.00463832      -0.01645171 </v>
   <v>      -0.00607293      -0.01068938       0.01764215 </v>
   <v>       0.00082775       0.00502707      -0.00192768 </v>
  </varray>
  <varray name="stress" >
   <v>      -0.07464222      -0.21831099       0.45806966 </v>
   <v>      -0.21831099       0.38275704      -0.64844440 </v>
   <v>       0.45806967      -0.64844439      -0.65453657 </v>
  </varray>
  <energy>
   <i name="e_fr_energy">    -24.08755641 </i>
   <i name="e_wo_entrp">    -24.08755641 </i>
   <i name="e_0_energy">     -0.00000000 </i>
  </energy>
  <time name="totalsc">    7.54    7.58</time>
  <eigenvalues>
   <array>
    <dimension dim="1">band</dimension>
    <dimension dim="2">kpoint</dimension>
    <dimension dim="3">spin</dimension>
    <field>eigene</field>
    <field>occ</field>
    <set>
     <set comment="spin 1">
      <set comment="kpoint 1">
       <r>  -16.8371    1.0000 </r>
       <r>   -9.3979    1.0000 </r>
       <r>   -9.2733    1.0000 </r>
       <r>   -9.0736    1.0000 </r>
       <r>   -0.5410    0.0000 </r>
       <r>    1.0037    0.0000 </r>
       <r>    1.0318    0.0000 </r>
       <r>    1.0435    0.0000 </r>
      </set>
     </set>
    </set>
   </array>
  </eigenvalues>
  <separator name="orbital magnetization" >
   <v name="MAGDIPOLOUT">      0.00000000      0.00000000      0.00000000</v>
  </separator>
  <dos>
   <i name="efermi">     -8.81055953 </i>
   <total>
    <array>
     <dimension dim="1">gridpoints</dimension>
     <dimension dim="2">spin</dimension>
     <field>energy</field>
     <field>total</field>
     <field>integrated</field>
     <set>
      <set comment="spin 1">
       <r>   -17.7311     0.0000     0.0000 </r>
       <r>   -17.6656     0.0000     0.0000 </r>
       <r>   -17.6000     0.0000     0.0000 </r>
       <r>   -17.5344     0.0000     0.0000 </r>
       <r>   -17.4689     0.0000     0.0000 </r>
       <r>   -17.4033     0.0000     0.0000 </r>
       <r>   -17.3378     0.0000     0.0000 </r>
       <r>   -17.2722     0.0000     0.0000 </r>
       <r>   -17.2066     0.0000     0.0000 </r>
       <r>   -17.1411     0.0000     0.0000 </r>
       <r>   -17.0755     0.0000     0.0000 </r>
       <r>   -17.0100     0.0000     0.0000 </r>
       <r>   -16.9444     0.0367     0.0024 </r>
       <r>   -16.8788     3.5930     0.2380 </r>
       <r>   -16.8133    19.2476     1.4999 </r>
       <r>   -16.7477     7.4533     1.9886 </r>
       <r>   -16.6821     0.1744     2.0000 </r>
       <r>   -16.6166     0.0002     2.0000 </r>
       <r>   -16.5510     0.0000     2.0000 </r>
       <r>   -16.4855     0.0000     2.0000 </r>
       <r>   -16.4199     0.0000     2.0000 </r>
       <r>   -16.3543     0.0000     2.0000 </r>
       <r>   -16.2888     0.0000     2.0000 </r>
       <r>   -16.2232     0.0000     2.0000 </r>
       <r>   -16.1576     0.0000     2.0000 </r>
       <r>   -16.0921     0.0000     2.0000 </r>
       <r>   -16.0265     0.0000     2.0000 </r>
       <r>   -15.9610     0.0000     2.0000 </r>
       <r>   -15.8954     0.0000     2.0000 </r>
       <r>   -15.8298     0.0000     2.0000 </r>
       <r>   -15.7643     0.0000     2.0000 </r>
       <r>   -15.6987     0.0000     2.0000 </r>
       <r>   -15.6331     0.0000     2.0000 </r>
       <r>   -15.5676     0.0000     2.0000 </r>
       <r>   -15.5020     0.0000     2.0000 </r>
       <r>   -15.4365     0.0000     2.0000 </r>
       <r>   -15.3709     0.0000     2.0000 </r>
       <r>   -15.3053     0.0000     2.0000 </r>
       <r>   -15.2398     0.0000     2.0000 </r>
       <r>   -15.1742     0.0000     2.0000 </r>
       <r>   -15.1086     0.0000     2.0000 </r>
       <r>   -15.0431     0.0000     2.0000 </r>
       <r>   -14.9775     0.0000     2.0000 </r>
       <r>   -14.9120     0.0000     2.0000 </r>
       <r>   -14.8464     0.0000     2.0000 </r>
       <r>   -14.7808     0.0000     2.0000 </r>
       <r>   -14.7153     0.0000     2.0000 </r>
       <r>   -14.6497     0.0000     2.0000 </r>
       <r>   -14.5841     0.0000     2.0000 </r>
       <r>   -14.5186     0.0000     2.0000 </r>
       <r>   -14.4530     0.0000     2.0000 </r>
       <r>   -14.3875     0.0000     2.0000 </r>
       <r>   -14.3219     0.0000     2.0000 </r>
       <r>   -14.2563     0.0000     2.0000 </r>
       <r>   -14.1908     0.0000     2.0000 </r>
       <r>   -14.1252     0.0000     2.0000 </r>
       <r>   -14.0596     0.0000     2.0000 </r>
       <r>   -13.9941     0.0000     2.0000 </r>
       <r>   -13.9285     0.0000     2.0000 </r>
       <r>   -13.8630     0.0000     2.0000 </r>
       <r>   -13.7974     0.0000     2.0000 </r>
       <r>   -13.7318     0.0000     2.0000 </r>
       <r>   -13.6663     0.0000     2.0000 </r>
       <r>   -13.6007     0.0000     2.0000 </r>
       <r>   -13.5351     0.0000     2.0000 </r>
       <r>   -13.4696     0.0000     2.0000 </r>
       <r>   -13.4040     0.0000     2.0000 </r>
       <r>   -13.3385     0.0000     2.0000 </r>
       <r>   -13.2729     0.0000     2.0000 </r>
       <r>   -13.2073     0.0000     2.0000 </r>
       <r>   -13.1418     0.0000     2.0000 </r>
       <r>   -13.0762     0.0000     2.0000 </r>
       <r>   -13.0106     0.0000     2.0000 </r>
       <r>   -12.9451     0.0000     2.0000 </r>
       <r>   -12.8795     0.0000     2.0000 </r>
       <r>   -12.8140     0.0000     2.0000 </r>
       <r>   -12.7484     0.0000     2.0000 </r>
       <r>   -12.6828     0.0000     2.0000 </r>
       <r>   -12.6173     0.0000     2.0000 </r>
       <r>   -12.5517     0.0000     2.0000 </r>
       <r>   -12.4861     0.0000     2.0000 </r>
       <r>   -12.4206     0.0000     2.0000 </r>
       <r>   -12.3550     0.0000     2.0000 </r>
       <r>   -12.2895     0.0000     2.0000 </r>
       <r>   -12.2239     0.0000     2.0000 </r>
       <r>   -12.1583     0.0000     2.0000 </r>
       <r>   -12.0928     0.0000     2.0000 </r>
       <r>   -12.0272     0.0000     2.0000 </r>
       <r>   -11.9616     0.0000     2.0000 </r>
       <r>   -11.8961     0.0000     2.0000 </r>
       <r>   -11.8305     0.0000     2.0000 </r>
       <r>   -11.7650     0.0000     2.0000 </r>
       <r>   -11.6994     0.0000     2.0000 </r>
       <r>   -11.6338     0.0000     2.0000 </r>
       <r>   -11.5683     0.0000     2.0000 </r>
       <r>   -11.5027     0.0000     2.0000 </r>
       <r>   -11.4372     0.0000     2.0000 </r>
       <r>   -11.3716     0.0000     2.0000 </r>
       <r>   -11.3060     0.0000     2.0000 </r>
       <r>   -11.2405     0.0000     2.0000 </r>
       <r>   -11.1749     0.0000     2.0000 </r>
       <r>   -11.1093     0.0000     2.0000 </r>
       <r>   -11.0438     0.0000     2.0000 </r>
       <r>   -10.9782     0.0000     2.0000 </r>
       <r>   -10.9127     0.0000     2.0000 </r>
       <r>   -10.8471     0.0000     2.0000 </r>
       <r>   -10.7815     0.0000     2.0000 </r>
       <r>   -10.7160     0.0000     2.0000 </r>
       <r>   -10.6504     0.0000     2.0000 </r>
       <r>   -10.5848     0.0000     2.0000 </r>
       <r>   -10.5193     0.0000     2.0000 </r>
       <r>   -10.4537     0.0000     2.0000 </r>
       <r>   -10.3882     0.0000     2.0000 </r>
       <r>   -10.3226     0.0000     2.0000 </r>
       <r>   -10.2570     0.0000     2.0000 </r>
       <r>   -10.1915     0.0000     2.0000 </r>
       <r>   -10.1259     0.0000     2.0000 </r>
       <r>   -10.0603     0.0000     2.0000 </r>
       <r>    -9.9948     0.0000     2.0000 </r>
       <r>    -9.9292     0.0000     2.0000 </r>
       <r>    -9.8637     0.0000     2.0000 </r>
       <r>    -9.7981     0.0000     2.0000 </r>
       <r>    -9.7325     0.0000     2.0000 </r>
       <r>    -9.6670     0.0000     2.0000 </r>
       <r>    -9.6014     0.0000     2.0000 </r>
       <r>    -9.5358     0.0015     2.0001 </r>
       <r>    -9.4703     0.6182     2.0406 </r>
       <r>    -9.4047    12.3026     2.8472 </r>
       <r>    -9.3392    17.0608     3.9658 </r>
       <r>    -9.2736    15.6565     4.9922 </r>
       <r>    -9.2080    14.3817     5.9351 </r>
       <r>    -9.1425     1.7708     6.0512 </r>
       <r>    -9.0769    13.3369     6.9256 </r>
       <r>    -9.0113    15.1938     7.9218 </r>
       <r>    -8.9458     1.1887     7.9997 </r>
       <r>    -8.8802     0.0046     8.0000 </r>
       <r>    -8.8147     0.0000     8.0000 </r>
       <r>    -8.7491     0.0000     8.0000 </r>
       <r>    -8.6835     0.0000     8.0000 </r>
       <r>    -8.6180     0.0000     8.0000 </r>
       <r>    -8.5524     0.0000     8.0000 </r>
       <r>    -8.4868     0.0000     8.0000 </r>
       <r>    -8.4213     0.0000     8.0000 </r>
       <r>    -8.3557     0.0000     8.0000 </r>
       <r>    -8.2902     0.0000     8.0000 </r>
       <r>    -8.2246     0.0000     8.0000 </r>
       <r>    -8.1590     0.0000     8.0000 </r>
       <r>    -8.0935     0.0000     8.0000 </r>
       <r>    -8.0279     0.0000     8.0000 </r>
       <r>    -7.9623     0.0000     8.0000 </r>
       <r>    -7.8968     0.0000     8.0000 </r>
       <r>    -7.8312     0.0000     8.0000 </r>
       <r>    -7.7657     0.0000     8.0000 </r>
       <r>    -7.7001     0.0000     8.0000 </r>
       <r>    -7.6345     0.0000     8.0000 </r>
       <r>    -7.5690     0.0000     8.0000 </r>
       <r>    -7.5034     0.0000     8.0000 </r>
       <r>    -7.4378     0.0000     8.0000 </r>
       <r>    -7.3723     0.0000     8.0000 </r>
       <r>    -7.3067     0.0000     8.0000 </r>
       <r>    -7.2412     0.0000     8.0000 </r>
       <r>    -7.1756     0.0000     8.0000 </r>
       <r>    -7.1100     0.0000     8.0000 </r>
       <r>    -7.0445     0.0000     8.0000 </r>
       <r>    -6.9789     0.0000     8.0000 </r>
       <r>    -6.9133     0.0000     8.0000 </r>
       <r>    -6.8478     0.0000     8.0000 </r>
       <r>    -6.7822     0.0000     8.0000 </r>
       <r>    -6.7167     0.0000     8.0000 </r>
       <r>    -6.6511     0.0000     8.0000 </r>
       <r>    -6.5855     0.0000     8.0000 </r>
       <r>    -6.5200     0.0000     8.0000 </r>
       <r>    -6.4544     0.0000     8.0000 </r>
       <r>    -6.3889     0.0000     8.0000 </r>
       <r>    -6.3233     0.0000     8.0000 </r>
       <r>    -6.2577     0.0000     8.0000 </r>
       <r>    -6.1922     0.0000     8.0000 </r>
       <r>    -6.1266     0.0000     8.0000 </r>
       <r>    -6.0610     0.0000     8.0000 </r>
       <r>    -5.9955     0.0000     8.0000 </r>
       <r>    -5.9299     0.0000     8.0000 </r>
       <r>    -5.8644     0.0000     8.0000 </r>
       <r>    -5.7988     0.0000     8.0000 </r>
       <r>    -5.7332     0.0000     8.0000 </r>
       <r>    -5.6677     0.0000     8.0000 </r>
       <r>    -5.6021     0.0000     8.0000 </r>
       <r>    -5.5365     0.0000     8.0000 </r>
       <r>    -5.4710     0.0000     8.0000 </r>
       <r>    -5.4054     0.0000     8.0000 </r>
       <r>    -5.3399     0.0000     8.0000 </r>
       <r>    -5.2743     0.0000     8.0000 </r>
       <r>    -5.2087     0.0000     8.0000 </r>
       <r>    -5.1432     0.0000     8.0000 </r>
       <r>    -5.0776     0.0000     8.0000 </r>
       <r>    -5.0120     0.0000     8.0000 </r>
       <r>    -4.9465     0.0000     8.0000 </r>
       <r>    -4.8809     0.0000     8.0000 </r>
       <r>    -4.8154     0.0000     8.0000 </r>
       <r>    -4.7498     0.0000     8.0000 </r>
       <r>    -4.6842     0.0000     8.0000 </r>
       <r>    -4.6187     0.0000     8.0000 </r>
       <r>    -4.5531     0.0000     8.0000 </r>
       <r>    -4.4875     0.0000     8.0000 </r>
       <r>    -4.4220     0.0000     8.0000 </r>
       <r>    -4.3564     0.0000     8.0000 </r>
       <r>    -4.2909     0.0000     8.0000 </r>
       <r>    -4.2253     0.0000     8.0000 </r>
       <r>    -4.1597     0.0000     8.0000 </r>
       <r>    -4.0942     0.0000     8.0000 </r>
       <r>    -4.0286     0.0000     8.0000 </r>
       <r>    -3.9630     0.0000     8.0000 </r>
       <r>    -3.8975     0.0000     8.0000 </r>
       <r>    -3.8319     0.0000     8.0000 </r>
       <r>    -3.7664     0.0000     8.0000 </r>
       <r>    -3.7008     0.0000     8.0000 </r>
       <r>    -3.6352     0.0000     8.0000 </r>
       <r>    -3.5697     0.0000     8.0000 </r>
       <r>    -3.5041     0.0000     8.0000 </r>
       <r>    -3.4385     0.0000     8.0000 </r>
       <r>    -3.3730     0.0000     8.0000 </r>
       <r>    -3.3074     0.0000     8.0000 </r>
       <r>    -3.2419     0.0000     8.0000 </r>
       <r>    -3.1763     0.0000     8.0000 </r>
       <r>    -3.1107     0.0000     8.0000 </r>
       <r>    -3.0452     0.0000     8.0000 </r>
       <r>    -2.9796     0.0000     8.0000 </r>
       <r>    -2.9140     0.0000     8.0000 </r>
       <r>    -2.8485     0.0000     8.0000 </r>
       <r>    -2.7829     0.0000     8.0000 </r>
       <r>    -2.7174     0.0000     8.0000 </r>
       <r>    -2.6518     0.0000     8.0000 </r>
       <r>    -2.5862     0.0000     8.0000 </r>
       <r>    -2.5207     0.0000     8.0000 </r>
       <r>    -2.4551     0.0000     8.0000 </r>
       <r>    -2.3895     0.0000     8.0000 </r>
       <r>    -2.3240     0.0000     8.0000 </r>
       <r>    -2.2584     0.0000     8.0000 </r>
       <r>    -2.1929     0.0000     8.0000 </r>
       <r>    -2.1273     0.0000     8.0000 </r>
       <r>    -2.0617     0.0000     8.0000 </r>
       <r>    -1.9962     0.0000     8.0000 </r>
       <r>    -1.9306     0.0000     8.0000 </r>
       <r>    -1.8650     0.0000     8.0000 </r>
       <r>    -1.7995     0.0000     8.0000 </r>
       <r>    -1.7339     0.0000     8.0000 </r>
       <r>    -1.6684     0.0000     8.0000 </r>
       <r>    -1.6028     0.0000     8.0000 </r>
       <r>    -1.5372     0.0000     8.0000 </r>
       <r>    -1.4717     0.0000     8.0000 </r>
       <r>    -1.4061     0.0000     8.0000 </r>
       <r>    -1.3405     0.0000     8.0000 </r>
       <r>    -1.2750     0.0000     8.0000 </r>
       <r>    -1.2094     0.0000     8.0000 </r>
       <r>    -1.1439     0.0000     8.0000 </r>
       <r>    -1.0783     0.0000     8.0000 </r>
       <r>    -1.0127     0.0000     8.0000 </r>
       <r>    -0.9472     0.0000     8.0000 </r>
       <r>    -0.8816     0.0000     8.0000 </r>
       <r>    -0.8161     0.0000     8.0000 </r>
       <r>    -0.7505     0.0000     8.0000 </r>
       <r>    -0.6849     0.0007     8.0000 </r>
       <r>    -0.6194     0.4052     8.0266 </r>
       <r>    -0.5538    10.5270     8.7168 </r>
       <r>    -0.4882    17.5011     9.8642 </r>
       <r>    -0.4227     2.0587     9.9992 </r>
       <r>    -0.3571     0.0125    10.0000 </r>
       <r>    -0.2916     0.0000    10.0000 </r>
       <r>    -0.2260     0.0000    10.0000 </r>
       <r>    -0.1604     0.0000    10.0000 </r>
       <r>    -0.0949     0.0000    10.0000 </r>
       <r>    -0.0293     0.0000    10.0000 </r>
       <r>     0.0363     0.0000    10.0000 </r>
       <r>     0.1018     0.0000    10.0000 </r>
       <r>     0.1674     0.0000    10.0000 </r>
       <r>     0.2329     0.0000    10.0000 </r>
       <r>     0.2985     0.0000    10.0000 </r>
       <r>     0.3641     0.0000    10.0000 </r>
       <r>     0.4296     0.0000    10.0000 </r>
       <r>     0.4952     0.0000    10.0000 </r>
       <r>     0.5608     0.0000    10.0000 </r>
       <r>     0.6263     0.0000    10.0000 </r>
       <r>     0.6919     0.0000    10.0000 </r>
       <r>     0.7574     0.0000    10.0000 </r>
       <r>     0.8230     0.0000    10.0000 </r>
       <r>     0.8886     0.0181    10.0012 </r>
       <r>     0.9541     3.0367    10.2003 </r>
       <r>     1.0197    36.3150    12.5812 </r>
       <r>     1.0853    46.2055    15.6105 </r>
       <r>     1.1508     5.8918    15.9968 </r>
       <r>     1.2164     0.0488    16.0000 </r>
       <r>     1.2819     0.0000    16.0000 </r>
       <r>     1.3475     0.0000    16.0000 </r>
       <r>     1.4131     0.0000    16.0000 </r>
       <r>     1.4786     0.0000    16.0000 </r>
       <r>     1.5442     0.0000    16.0000 </r>
       <r>     1.6098     0.0000    16.0000 </r>
       <r>     1.6753     0.0000    16.0000 </r>
       <r>     1.7409     0.0000    16.0000 </r>
       <r>     1.8064     0.0000    16.0000 </r>
       <r>     1.8720     0.0000    16.0000 </r>
       <r>     1.9376     0.0000    16.0000 </r>
      </set>
     </set>
    </array>
   </total>
  </dos>
 </calculation>
 <structure name="finalpos" >
  <crystal>
   <varray name="basis" >
    <v>      10.00000000       0.00000000       0.00000000 </v>
    <v>       0.00000000      10.00000000       0.00000000 </v>
    <v>       0.00000000       0.00000000      10.00000000 </v>
   </varray>
   <i name="volume">   1000.00000000 </i>
   <varray name="rec_basis" >
    <v>       0.10000000       0.00000000       0.00000000 </v>
    <v>       0.00000000       0.10000000       0.00000000 </v>
    <v>       0.00000000       0.00000000       0.10000000 </v>
   </varray>
  </crystal>
  <varray name="positions" >
   <v>       0.53658622       0.40541489       0.35984781 </v>
   <v>       0.39261074       0.48262800       0.44244815 </v>
   <v>       0.55636012       0.56503257       0.44306430 </v>
   <v>       0.52872882       0.41434691       0.53670257 </v>
   <v>       0.50193647       0.46887922       0.44410278 </v>
  </varray>
 </structure>
</modeling>
