unknown system                          
           1
    10.000000    0.000000    0.000000
     0.000000   10.000000    0.000000
     0.000000    0.000000   10.000000
   H    C 
   4   1
Direct configuration=     1
   0.53815436  0.40686078  0.36057303
   0.39453964  0.48032055  0.43846884
   0.55209246  0.56545029  0.44270873
   0.52818532  0.41641479  0.53918266
   0.50325060  0.46725517  0.44523235
Direct configuration=     2
   0.53823862  0.40524627  0.35774468
   0.39737543  0.48119201  0.44237643
   0.55292562  0.56548577  0.44251589
   0.52857953  0.41418132  0.54058298
   0.49910318  0.47019620  0.44294564
Direct configuration=     3
   0.53817666  0.40643342  0.35982436
   0.39529028  0.48055123  0.43950319
   0.55231300  0.56545968  0.44265768
   0.52828967  0.41582359  0.53955333
   0.50215277  0.46803367  0.44462705
Direct configuration=     4
   0.53817382  0.40648782  0.35991966
   0.39519473  0.48052186  0.43937152
   0.55228493  0.56545849  0.44266418
   0.52827639  0.41589884  0.53950614
   0.50229252  0.46793457  0.44470410
Direct configuration=     5
   0.53766883  0.40562940  0.35953651
   0.39391999  0.48055395  0.44024098
   0.55368214  0.56507541  0.44308476
   0.52871290  0.41605668  0.53941049
   0.50223853  0.46898614  0.44389287
Direct configuration=     6
   0.53774971  0.40576689  0.35959788
   0.39412416  0.48054881  0.44010172
   0.55345834  0.56513676  0.44301740
   0.52864298  0.41603140  0.53942581
   0.50224718  0.46881771  0.44402280
Direct configuration=     7
   0.53746275  0.40534004  0.35963015
   0.39342024  0.48058066  0.44065050
   0.55429069  0.56506876  0.44296141
   0.52861429  0.41649619  0.53890705
   0.50243441  0.46881592  0.44401651
Direct configuration=     8
   0.53754409  0.40546104  0.35962100
   0.39361977  0.48057164  0.44049494
   0.55405475  0.56508803  0.44297728
   0.52862242  0.41636444  0.53905410
   0.50238134  0.46881643  0.44401829
Direct configuration=     9
   0.53753340  0.40561296  0.35988543
   0.39369359  0.48074175  0.44046000
   0.55412424  0.56496634  0.44284194
   0.52855653  0.41635240  0.53884744
   0.50231462  0.46862813  0.44413080
Direct configuration=    10
   0.53753211  0.40563126  0.35991728
   0.39370248  0.48076225  0.44045579
   0.55413261  0.56495168  0.44282564
   0.52854859  0.41635095  0.53882254
   0.50230658  0.46860544  0.44414435
Direct configuration=    11
   0.53750503  0.40563189  0.35995077
   0.39377928  0.48101616  0.44054714
   0.55419627  0.56483872  0.44269094
   0.52853437  0.41616176  0.53872630
   0.50220743  0.46865305  0.44425045
Direct configuration=    12
   0.53748445  0.40563237  0.35997622
   0.39383763  0.48120912  0.44061656
   0.55424464  0.56475287  0.44258859
   0.52852357  0.41601799  0.53865317
   0.50213208  0.46868923  0.44433107
Direct configuration=    13
   0.53743423  0.40552715  0.35995206
   0.39382313  0.48147713  0.44076644
   0.55431705  0.56479093  0.44252408
   0.52851958  0.41588280  0.53856370
   0.50212839  0.46862357  0.44435933
Direct configuration=    14
   0.53738403  0.40542200  0.35992791
   0.39380864  0.48174499  0.44091623
   0.55438941  0.56482896  0.44245961
   0.52851561  0.41574769  0.53847428
   0.50212470  0.46855794  0.44438758
Direct configuration=    15
   0.53735720  0.40530989  0.35997934
   0.39380398  0.48193484  0.44109682
   0.55439910  0.56478192  0.44249988
   0.52849412  0.41575822  0.53828765
   0.50216798  0.46851670  0.44430192
Direct configuration=    16
   0.53731017  0.40511344  0.36006946
   0.39379583  0.48226752  0.44141327
   0.55441609  0.56469951  0.44257046
   0.52845648  0.41577668  0.53796061
   0.50224382  0.46844443  0.44415181
Direct configuration=    17
   0.53721613  0.40472054  0.36024969
   0.39377951  0.48293287  0.44204616
   0.55445006  0.56453469  0.44271162
   0.52838119  0.41581359  0.53730653
   0.50239550  0.46829989  0.44385161
Direct configuration=    18
   0.53728551  0.40501041  0.36011672
   0.39379155  0.48244200  0.44157923
   0.55442500  0.56465629  0.44260748
   0.52843673  0.41578636  0.53778908
   0.50228359  0.46840653  0.44407309
Direct configuration=    19
   0.53725082  0.40486548  0.36018321
   0.39378553  0.48268743  0.44181270
   0.55443753  0.56459549  0.44265955
   0.52840896  0.41579997  0.53754781
   0.50233955  0.46835321  0.44396235
Direct configuration=    20
   0.53724870  0.40484621  0.36018957
   0.39377911  0.48272978  0.44186039
   0.55444125  0.56458671  0.44266785
   0.52840682  0.41578904  0.53750415
   0.50234651  0.46834985  0.44394365
Direct configuration=    21
   0.53724234  0.40478841  0.36020866
   0.39375984  0.48285681  0.44200347
   0.55445241  0.56456035  0.44269275
   0.52840038  0.41575624  0.53737319
   0.50236740  0.46833977  0.44388755
Direct configuration=    22
   0.53724829  0.40479533  0.36020188
   0.39374651  0.48286084  0.44201930
   0.55445666  0.56456394  0.44269335
   0.52840602  0.41573105  0.53736534
   0.50236491  0.46835041  0.44388574
Direct configuration=    23
   0.53726615  0.40481609  0.36018155
   0.39370650  0.48287295  0.44206678
   0.55446939  0.56457469  0.44269513
   0.52842291  0.41565551  0.53734182
   0.50235743  0.46838234  0.44388032
Direct configuration=    24
   0.53730186  0.40485761  0.36014090
   0.39362648  0.48289717  0.44216176
   0.55449486  0.56459620  0.44269869
   0.52845671  0.41550441  0.53729477
   0.50234247  0.46844619  0.44386949
Direct configuration=    25
   0.53737329  0.40494065  0.36005959
   0.39346645  0.48294560  0.44235170
   0.55454579  0.56463922  0.44270581
   0.52852430  0.41520223  0.53720068
   0.50231256  0.46857388  0.44384783
Direct configuration=    26
   0.53751613  0.40510673  0.35989697
   0.39314638  0.48304246  0.44273159
   0.55464765  0.56472526  0.44272006
   0.52865949  0.41459785  0.53701249
   0.50225273  0.46882927  0.44380451
Direct configuration=    27
   0.53754649  0.40520882  0.35988770
   0.39303890  0.48302225  0.44279400
   0.55469592  0.56475947  0.44273068
   0.52872196  0.41448751  0.53686966
   0.50221911  0.46882354  0.44388357
Direct configuration=    28
   0.53758152  0.40532663  0.35987702
   0.39291486  0.48299892  0.44286603
   0.55475163  0.56479894  0.44274294
   0.52879406  0.41436016  0.53670483
   0.50218031  0.46881692  0.44397480
Direct configuration=    29
   0.53759034  0.40535628  0.35987433
   0.39288364  0.48299305  0.44288415
   0.55476565  0.56480888  0.44274602
   0.52881220  0.41432811  0.53666335
   0.50217055  0.46881526  0.44399776
Direct configuration=    30
   0.53756857  0.40539366  0.35988051
   0.39287925  0.48293992  0.44284212
   0.55479208  0.56481457  0.44273739
   0.52884584  0.41436012  0.53668931
   0.50213664  0.46879330  0.44401629
Direct configuration=    31
   0.53750326  0.40550579  0.35989906
   0.39286608  0.48278054  0.44271600
   0.55487135  0.56483164  0.44271149
   0.52894676  0.41445616  0.53676720
   0.50203492  0.46872744  0.44407186
Direct configuration=    32
   0.53737265  0.40573007  0.35993617
   0.39283974  0.48246178  0.44246376
   0.55502990  0.56486578  0.44265969
   0.52914860  0.41464823  0.53692298
   0.50183149  0.46859572  0.44418302
Direct configuration=    33
   0.53746898  0.40556467  0.35990881
   0.39285916  0.48269686  0.44264978
   0.55491298  0.56484060  0.44269789
   0.52899975  0.41450658  0.53680809
   0.50198152  0.46869286  0.44410104
Direct configuration=    34
   0.53745440  0.40555477  0.35991185
   0.39280335  0.48264413  0.44259733
   0.55497841  0.56480153  0.44271368
   0.52901896  0.41456922  0.53678475
   0.50196726  0.46873194  0.44415799
Direct configuration=    35
   0.53743871  0.40554410  0.35991513
   0.39274322  0.48258733  0.44254083
   0.55504891  0.56475943  0.44273070
   0.52903965  0.41463669  0.53675960
   0.50195190  0.46877403  0.44421934
Direct configuration=    36
   0.53741201  0.40551773  0.35992910
   0.39267051  0.48258709  0.44250288
   0.55517246  0.56472017  0.44275860
   0.52903402  0.41467290  0.53677346
   0.50193338  0.46880369  0.44420157
Direct configuration=    37
   0.53733193  0.40543865  0.35997098
   0.39245240  0.48258638  0.44238903
   0.55554310  0.56460237  0.44284231
   0.52901713  0.41478151  0.53681504
   0.50187782  0.46889267  0.44414825
Direct configuration=    38
   0.53717177  0.40528048  0.36005475
   0.39201619  0.48258495  0.44216132
   0.55628438  0.56436678  0.44300973
   0.52898335  0.41499875  0.53689819
   0.50176670  0.46907063  0.44404163
Direct configuration=    39
   0.53730418  0.40541124  0.35998550
   0.39237681  0.48258613  0.44234957
   0.55567156  0.56456154  0.44287132
   0.52901128  0.41481916  0.53682945
   0.50185856  0.46892351  0.44412978
Direct configuration=    40
   0.53726793  0.40542139  0.35996514
   0.39243444  0.48259403  0.44238789
   0.55575849  0.56460800  0.44288127
   0.52895369  0.41479852  0.53681125
   0.50180783  0.46887964  0.44412006
Direct configuration=    41
   0.53718020  0.40544594  0.35991587
   0.39257393  0.48261316  0.44248066
   0.55596887  0.56472045  0.44290533
   0.52881433  0.41474856  0.53676722
   0.50168505  0.46877347  0.44409653
Direct configuration=    42
   0.53716181  0.40545109  0.35990554
   0.39260317  0.48261717  0.44250010
   0.55601297  0.56474402  0.44291037
   0.52878512  0.41473808  0.53675799
   0.50165932  0.46875122  0.44409160
Direct configuration=    43
   0.53711649  0.40545026  0.35988579
   0.39257877  0.48262684  0.44250484
   0.55609177  0.56478425  0.44293440
   0.52873488  0.41466494  0.53677187
   0.50170046  0.46877529  0.44406871
Direct configuration=    44
   0.53703305  0.40544874  0.35984943
   0.39253387  0.48264463  0.44251357
   0.55623685  0.56485832  0.44297864
   0.52864240  0.41453029  0.53679742
   0.50177622  0.46881960  0.44402655
Direct configuration=    45
   0.53699287  0.40544252  0.35985046
   0.39254649  0.48262541  0.44248981
   0.55623683  0.56492232  0.44301737
   0.52862256  0.41446544  0.53674939
   0.50182363  0.46884589  0.44405857
Direct configuration=    46
   0.53695270  0.40543630  0.35985149
   0.39255911  0.48260620  0.44246607
   0.55623681  0.56498628  0.44305609
   0.52860273  0.41440064  0.53670139
   0.50187102  0.46887216  0.44409057
Direct configuration=    47
   0.53689903  0.40544750  0.35984445
   0.39257244  0.48260519  0.44243174
   0.55625035  0.56502246  0.44307499
   0.52861271  0.41434060  0.53672567
   0.50188785  0.46888584  0.44408876
Direct configuration=    48
   0.53689983  0.40544733  0.35984456
   0.39257224  0.48260520  0.44243225
   0.55625015  0.56502192  0.44307471
   0.52861256  0.41434149  0.53672531
   0.50188760  0.46888563  0.44408879
Direct configuration=    49
   0.53686257  0.40545797  0.35984460
   0.39257528  0.48261972  0.44243304
   0.55627583  0.56500923  0.44307542
   0.52862666  0.41433709  0.53672501
   0.50188204  0.46887756  0.44408754
Direct configuration=    50
   0.53680855  0.40547341  0.35984465
   0.39257967  0.48264077  0.44243418
   0.55631307  0.56499083  0.44307646
   0.52864712  0.41433071  0.53672458
   0.50187397  0.46886587  0.44408574
Direct configuration=    51
   0.53676253  0.40545979  0.35983617
   0.39259142  0.48264194  0.44244271
   0.55632415  0.56499562  0.44308042
   0.52866552  0.41433873  0.53670844
   0.50187877  0.46886550  0.44409788
Direct configuration=    52
   0.53674209  0.40545374  0.35983240
   0.39259663  0.48264246  0.44244649
   0.55632908  0.56499774  0.44308218
   0.52867369  0.41434230  0.53670127
   0.50188090  0.46886534  0.44410327
Direct configuration=    53
   0.53670418  0.40544129  0.35983015
   0.39260148  0.48263837  0.44244634
   0.55633297  0.56500834  0.44307972
   0.52869041  0.41434319  0.53670810
   0.50189334  0.46887041  0.44410130
Direct configuration=    54
   0.53659044  0.40540393  0.35982339
   0.39261604  0.48262607  0.44244587
   0.55634467  0.56504012  0.44307236
   0.52874057  0.41434586  0.53672859
   0.50193066  0.46888560  0.44409540
Direct configuration=    55
   0.53658435  0.40541974  0.35985862
   0.39260840  0.48262886  0.44244916
   0.55636696  0.56502922  0.44306073
   0.52872362  0.41434737  0.53669106
   0.50193905  0.46887639  0.44410604
Direct configuration=    56
   0.53658622  0.40541489  0.35984781
   0.39261074  0.48262800  0.44244815
   0.55636012  0.56503257  0.44306430
   0.52872882  0.41434691  0.53670257
   0.50193647  0.46887922  0.44410278
