                                                                                     
                             WELCOME TO ABACUS                                       
                                                                                     
               'Atomic-orbital Based Ab-initio Computation at UStc'                  
                                                                                     
                     Website: http://abacus.ustc.edu.cn/                             
                                                                                     
    Version: Parallel, in development
    Processor Number is 4
    Start Time is Sun Apr 17 15:10:23 2022
                                                                                     
 ------------------------------------------------------------------------------------

 READING GENERAL INFORMATION
                           global_out_dir = OUT.ABACUS/
                           global_in_card = INPUT
                               pseudo_dir = 
                              orbital_dir = 
                              pseudo_type = auto
                                    DRANK = 1
                                    DSIZE = 4
                                   DCOLOR = 1
                                    GRANK = 1
                                    GSIZE = 1




 >>>>>>>>>>>>>>>>>>>>>>>>>>>>>>>>>>>>>>>>>>>>>>>>>>>>>>>>>>>>>>>>>>>>>>
 |                                                                    |
 | Reading atom information in unitcell:                              |
 | From the input file and the structure file we know the number of   |
 | different elments in this unitcell, then we list the detail        |
 | information for each element, especially the zeta and polar atomic |
 | orbital number for each element. The total atom number is counted. |
 | We calculate the nearest atom distance for each atom and show the  |
 | Cartesian and Direct coordinates for each atom. We list the file   |
 | address for atomic orbitals. The volume and the lattice vectors    |
 | in real and reciprocal space is also shown.                        |
 |                                                                    |
 <<<<<<<<<<<<<<<<<<<<<<<<<<<<<<<<<<<<<<<<<<<<<<<<<<<<<<<<<<<<<<<<<<<<<<




 READING UNITCELL INFORMATION
                                    ntype = 2
                 atom label for species 1 = H
                 atom label for species 2 = C
                  lattice constant (Bohr) = 1.88973
              lattice constant (Angstrom) = 1

 READING ATOM TYPE 1
                               atom label = H
                      L=0, number of zeta = 2
                      L=1, number of zeta = 1
             number of atom for this type = 4
                      start magnetization = FALSE
                      start magnetization = FALSE
                      start magnetization = FALSE
                      start magnetization = FALSE

 READING ATOM TYPE 2
                               atom label = C
                      L=0, number of zeta = 2
                      L=1, number of zeta = 2
                      L=2, number of zeta = 1
             number of atom for this type = 1
                      start magnetization = FALSE

                        TOTAL ATOM NUMBER = 5

 CARTESIAN COORDINATES ( UNIT = 1.88973 Bohr ).
         atom                   x                   y                   z                 mag                  vx                  vy                  vz
      tauc_H1       5.11354151141       3.86332162016       3.42284940424                   0                   0                   0                   0
      tauc_H2       3.74479240205       4.56343706925       4.16524153913                   0                   0                   0                   0
      tauc_H3       5.24638914723        5.3747890141       4.20565131535                   0                   0                   0                   0
      tauc_H4       5.01853589977       3.95436780651       5.12512008234                   0                   0                   0                   0
      tauc_C1        4.7808626171       4.43895826052       4.22971920202                   0                   0                   0                   0


 READING ORBITAL FILE NAMES FOR LCAO
 orbital file: H_gga_8au_60Ry_2s1p.orb
 orbital file: C_gga_8au_60Ry_2s2p1d.orb

                          Volume (Bohr^3) = 5785.86022047
                             Volume (A^3) = 857.37500227

 Lattice vectors: (Cartesian coordinate: in unit of a_0)
       +9.50000379042                  +0                  +0
                   +0      +9.50000379042                  +0
                   +0                  +0      +9.50000379042
 Reciprocal vectors: (Cartesian coordinate: in unit of 2 pi/a_0)
      +0.105263115896                  +0                  +0
                   +0     +0.105263115896                  +0
                   +0                  -0     +0.105263115896




 >>>>>>>>>>>>>>>>>>>>>>>>>>>>>>>>>>>>>>>>>>>>>>>>>>>>>>>>>>>>>>>>>>>>>>
 |                                                                    |
 | Reading pseudopotentials files:                                    |
 | The pseudopotential file is in UPF format. The 'NC' indicates that |
 | the type of pseudopotential is 'norm conserving'. Functional of    |
 | exchange and correlation is decided by 4 given parameters in UPF   |
 | file.  We also read in the 'core correction' if there exists.      |
 | Also we can read the valence electrons number and the maximal      |
 | angular momentum used in this pseudopotential. We also read in the |
 | trail wave function, trail atomic density and local-pseudopotential|
 | on logrithmic grid. The non-local pseudopotential projector is also|
 | read in if there is any.                                           |
 |                                                                    |
 <<<<<<<<<<<<<<<<<<<<<<<<<<<<<<<<<<<<<<<<<<<<<<<<<<<<<<<<<<<<<<<<<<<<<<




                PAO radial cut off (Bohr) = 15

 Read in pseudopotential file is H_ONCV_PBE-1.0.upf
                     pseudopotential type = NC
          exchange-correlation functional = PBE
                 nonlocal core correction = 0
                        valence electrons = 1
                                     lmax = 0
                           number of zeta = 0
                     number of projectors = 2
                           L of projector = 0
                           L of projector = 0
                PAO radial cut off (Bohr) = 15

 Read in pseudopotential file is C_ONCV_PBE-1.0.upf
                     pseudopotential type = NC
          exchange-correlation functional = PBE
                 nonlocal core correction = 0
                        valence electrons = 4
                                     lmax = 1
                           number of zeta = 0
                     number of projectors = 4
                           L of projector = 0
                           L of projector = 0
                           L of projector = 1
                           L of projector = 1
     initial pseudo atomic orbital number = 0
                                   NLOCAL = 33

 SETUP THE ELECTRONS NUMBER
             electron number of element H = 1
       total electron number of element H = 4
             electron number of element C = 4
       total electron number of element C = 4
                           occupied bands = 4
                                   NLOCAL = 33
                                   NBANDS = 14
                                   NBANDS = 14
 DONE : SETUP UNITCELL Time : 0.044255124405 (SEC)





 >>>>>>>>>>>>>>>>>>>>>>>>>>>>>>>>>>>>>>>>>>>>>>>>>>>>>>>>>>>>>>>>>>>>>>
 |                                                                    |
 | Setup K-points                                                     |
 | We setup the k-points according to input parameters.               |
 | The reduced k-points are set according to symmetry operations.     |
 | We treat the spin as another set of k-points.                      |
 |                                                                    |
 <<<<<<<<<<<<<<<<<<<<<<<<<<<<<<<<<<<<<<<<<<<<<<<<<<<<<<<<<<<<<<<<<<<<<<





 SETUP K-POINTS
                                    nspin = 1
                   Input type of k points = Monkhorst-Pack(Gamma)
                                   nkstot = 1

  KPOINTS            DIRECT_X            DIRECT_Y            DIRECT_Z              WEIGHT
        1                   0                   0                   0                   1

           k-point number in this process = 1
       minimum distributed K point number = 1

  KPOINTS         CARTESIAN_X         CARTESIAN_Y         CARTESIAN_Z              WEIGHT
        1                   0                   0                   0                   2

  KPOINTS            DIRECT_X            DIRECT_Y            DIRECT_Z              WEIGHT
        1                   0                   0                   0                   2
 DONE : INIT K-POINTS Time : 0.0458821123466 (SEC)





 >>>>>>>>>>>>>>>>>>>>>>>>>>>>>>>>>>>>>>>>>>>>>>>>>>>>>>>>>>>>>>>>>>>>>>
 |                                                                    |
 | Setup plane waves:                                                 |
 | Use the energy cutoff and the lattice vectors to generate the      |
 | dimensions of FFT grid. The number of FFT grid on each processor   |
 | is 'nrxx'. The number of plane wave basis in reciprocal space is   |
 | different for charege/potential and wave functions. We also set    |
 | the 'sticks' for the parallel of FFT.                              |
 |                                                                    |
 <<<<<<<<<<<<<<<<<<<<<<<<<<<<<<<<<<<<<<<<<<<<<<<<<<<<<<<<<<<<<<<<<<<<<<





 SETUP THE PLANE WAVE BASIS
     energy cutoff for wavefunc (unit:Ry) = 90
            [fft grid for wave functions] = 120, 120, 120
          [fft grid for charge/potential] = 120, 120, 120
                      [fft grid division] = 2, 2, 2
      [big fft grid for charge/potential] = 60, 60, 60
                                     nbxx = 54000
                                     nrxx = 432000

 SETUP PLANE WAVES FOR CHARGE/POTENTIAL
                    number of plane waves = 667317
                         number of sticks = 9249

 SETUP PLANE WAVES FOR WAVE FUNCTIONS
                    number of plane waves = 83599
                         number of sticks = 2313

 PARALLEL PW FOR CHARGE/POTENTIAL
     PROC   COLUMNS(POT)             PW
        1           2310         166830
        2           2313         166829
        3           2313         166829
        4           2313         166829
 --------------- sum -------------------
        4           9249         667317

 PARALLEL PW FOR WAVE FUNCTIONS
     PROC     COLUMNS(W)             PW
        1            575          20899
        2            580          20900
        3            578          20898
        4            580          20902
 --------------- sum -------------------
        4           2313          83599

 SETUP COORDINATES OF PLANE WAVES
              number of total plane waves = 667317

 SETUP COORDINATES OF PLANE WAVES
                            number of |g| = 2450
                                  max |g| = 32.553990643
                                  min |g| = 0
 DONE : INIT PLANEWAVE Time : 0.377468010411 (SEC)

 DONE : INIT CHARGE Time : 0.403857703321 (SEC)

 DONE : INIT POTENTIAL Time : 0.408238855191 (SEC)





 >>>>>>>>>>>>>>>>>>>>>>>>>>>>>>>>>>>>>>>>>>>>>>>>>>>>>>>>>>>>>>>>>>>>>>
 |                                                                    |
 | Setup numerical orbitals:                                          |
 | This part setup: numerical atomic orbitals, non-local projectors   |
 | and neutral potential (1D). The atomic orbitals information        |
 | including the radius, angular momentum and zeta number.            |
 | The neutral potential is the sum of local part of pseudopotential  |
 | and potential given by atomic charge, they will cancel out beyond  |
 | a certain radius cutoff, because the Z/r character.                |
 |                                                                    |
 <<<<<<<<<<<<<<<<<<<<<<<<<<<<<<<<<<<<<<<<<<<<<<<<<<<<<<<<<<<<<<<<<<<<<<





 SETUP ONE DIMENSIONAL ORBITALS/POTENTIAL
                        delta k  (1/Bohr) = 0.01
                        delta r    (Bohr) = 0.01
                        dr_uniform (Bohr) = 0.001
                        rmax       (Bohr) = 30
                                    kmesh = 953
      ORBITAL  L  N      nr      dr    RCUT  CHECK_UNIT    NEW_UNIT
            1  0  0     801    0.01       8           1           1
            2  0  1     801    0.01       8           1           1
            3  1  0     801    0.01       8           1           1
      ORBITAL  L  N      nr      dr    RCUT  CHECK_UNIT    NEW_UNIT
            1  0  0     801    0.01       8           1           1
            2  0  1     801    0.01       8           1           1
            3  1  0     801    0.01       8           1           1
            4  1  1     801    0.01       8           1           1
            5  2  0     801    0.01       8           1           1
 SET NONLOCAL PSEUDOPOTENTIAL PROJECTORS
 SET NONLOCAL PSEUDOPOTENTIAL PROJECTORS
 max number of nonlocal projetors among all species is 4

 SETUP THE TWO-CENTER INTEGRATION TABLES

 SETUP THE DIVISION OF H/S MATRIX
 divide the H&S matrix using 2D block algorithms.
                                     nb2d = 1
                  trace_loc_row dimension = 33
                  trace_loc_col dimension = 33
                                     nloc = 289
                                 init_chg = atomic
                                     nloc = 289
              searching radius is (Bohr)) = 18.89
         searching radius unit is (Bohr)) = 1.88973

 LCAO ALGORITHM ------------- MD =    1  ELEC =    1 --------------------------------

 Density error is 0.369103341079

 LCAO ALGORITHM ------------- MD =    1  ELEC =    2 --------------------------------

 Density error is 0.143573672298

 LCAO ALGORITHM ------------- MD =    1  ELEC =    3 --------------------------------

 Density error is 0.0734674541148

 LCAO ALGORITHM ------------- MD =    1  ELEC =    4 --------------------------------

 Density error is 0.00483129776793

 LCAO ALGORITHM ------------- MD =    1  ELEC =    5 --------------------------------

 Density error is 0.00175259574578

 LCAO ALGORITHM ------------- MD =    1  ELEC =    6 --------------------------------

 Density error is 0.000110712686393

 LCAO ALGORITHM ------------- MD =    1  ELEC =    7 --------------------------------

 Density error is 6.19582961728e-05

 LCAO ALGORITHM ------------- MD =    1  ELEC =    8 --------------------------------

 Density error is 1.8043377224e-06

 LCAO ALGORITHM ------------- MD =    1  ELEC =    9 --------------------------------

 Density error is 7.13331944904e-07

 LCAO ALGORITHM ------------- MD =    1  ELEC =   10 --------------------------------

 Density error is 2.6209014458e-08

 LCAO ALGORITHM ------------- MD =    1  ELEC =   11 --------------------------------

 Density error is 1.41723715595e-08

 LCAO ALGORITHM ------------- MD =    1  ELEC =   12 --------------------------------

 Density error is 3.11824834896e-10

 charge density convergence is achieved
 final etot is -219.417612344 eV

 ><><><><><><><><><><><><><><><><><><><><><><

    TOTAL-FORCE (eV/Angstrom)

 ><><><><><><><><><><><><><><><><><><><><><><

     atom              x              y              z
       H1    +0.66817605     -1.1559675     -1.6201541
       H2      -2.080502    +0.24971032    -0.12958234
       H3    +0.93480114     +1.8790242   -0.048433506
       H4    +0.47749957    -0.97335707     +1.7979153
       C1 +2.5229946e-05 +0.00059002136 +0.00025459897


 ><><><><><><><><><><><><><><><><><><><><><><

 TOTAL-STRESS (KBAR)

 ><><><><><><><><><><><><><><><><><><><><><><

       +5.466287      -0.000214      +0.000166
       -0.000214      +5.469655      -0.000303
       +0.000166      -0.000303      +5.469637

 -------------------------------------------
 STEP OF MOLECULAR DYNAMICS : 0
 -------------------------------------------

output Pressure for check!
Virtual Pressure is +5.474968 Kbar 
Virial Term is +5.468527 Kbar 
Kenetic Term is +0.006441 Kbar 


 ><><><><><><><><><><><><><><><><><><><><><><

 MD STRESS (KBAR)

 ><><><><><><><><><><><><><><><><><><><><><><

       +5.471080      +0.000651      -0.003879
       +0.000651      +5.472481      -0.005115
       -0.003879      -0.005115      +5.481343
                                     nloc = +289
              searching radius is (Bohr)) = +18.890000
         searching radius unit is (Bohr)) = +1.889726

 LCAO ALGORITHM ------------- MD =    2  ELEC =    1 --------------------------------

 Density error is +0.010266517531

 LCAO ALGORITHM ------------- MD =    2  ELEC =    2 --------------------------------

 Density error is +0.002497371603

 LCAO ALGORITHM ------------- MD =    2  ELEC =    3 --------------------------------

 Density error is +0.001347922782

 LCAO ALGORITHM ------------- MD =    2  ELEC =    4 --------------------------------

 Density error is +0.000084761244

 LCAO ALGORITHM ------------- MD =    2  ELEC =    5 --------------------------------

 Density error is +0.000012263011

 LCAO ALGORITHM ------------- MD =    2  ELEC =    6 --------------------------------

 Density error is +0.000001314208

 LCAO ALGORITHM ------------- MD =    2  ELEC =    7 --------------------------------

 Density error is +0.000000452317

 LCAO ALGORITHM ------------- MD =    2  ELEC =    8 --------------------------------

 Density error is +0.000000076730

 LCAO ALGORITHM ------------- MD =    2  ELEC =    9 --------------------------------

 Density error is +0.000000005728

 LCAO ALGORITHM ------------- MD =    2  ELEC =   10 --------------------------------

 Density error is +0.000000000431

 charge density convergence is achieved
 final etot is -219.492968914185 eV

 ><><><><><><><><><><><><><><><><><><><><><><

    TOTAL-FORCE (eV/Angstrom)

 ><><><><><><><><><><><><><><><><><><><><><><

     atom              x              y              z
       H1    +0.49025494    -0.86039958    -1.20570083
       H2    -1.76382370    +0.18895466    -0.09843194
       H3    +0.72520265    +1.42096166    -0.01878483
       H4    +0.37884284    -0.78455333    +1.49561282
       C1    +0.16952328    +0.03503658    -0.17269523


 ><><><><><><><><><><><><><><><><><><><><><><

 TOTAL-STRESS (KBAR)

 ><><><><><><><><><><><><><><><><><><><><><><

       +4.553376      -0.021360      +0.084915
       -0.021360      +4.214380      -0.113669
       +0.084915      -0.113669      +4.372736

 -------------------------------------------
 STEP OF MOLECULAR DYNAMICS : 1
 -------------------------------------------

output Pressure for check!
Virtual Pressure is +4.468046 Kbar 
Virial Term is +4.380164 Kbar 
Kenetic Term is +0.087882 Kbar 


 ><><><><><><><><><><><><><><><><><><><><><><

 MD STRESS (KBAR)

 ><><><><><><><><><><><><><><><><><><><><><><

       +4.628332      -0.038761      +0.085917
       -0.038761      +4.315308      -0.131320
       +0.085917      -0.131320      +4.460499
                                     nloc = +289
              searching radius is (Bohr)) = +18.890000
         searching radius unit is (Bohr)) = +1.889726

 LCAO ALGORITHM ------------- MD =    3  ELEC =    1 --------------------------------

 Density error is +0.024594159592

 LCAO ALGORITHM ------------- MD =    3  ELEC =    2 --------------------------------

 Density error is +0.005534035993

 LCAO ALGORITHM ------------- MD =    3  ELEC =    3 --------------------------------

 Density error is +0.003088913442

 LCAO ALGORITHM ------------- MD =    3  ELEC =    4 --------------------------------

 Density error is +0.000157548989

 LCAO ALGORITHM ------------- MD =    3  ELEC =    5 --------------------------------

 Density error is +0.000009096313

 LCAO ALGORITHM ------------- MD =    3  ELEC =    6 --------------------------------

 Density error is +0.000002928976

 LCAO ALGORITHM ------------- MD =    3  ELEC =    7 --------------------------------

 Density error is +0.000001094513

 LCAO ALGORITHM ------------- MD =    3  ELEC =    8 --------------------------------

 Density error is +0.000000078221

 LCAO ALGORITHM ------------- MD =    3  ELEC =    9 --------------------------------

 Density error is +0.000000005822

 LCAO ALGORITHM ------------- MD =    3  ELEC =   10 --------------------------------

 Density error is +0.000000000775

 charge density convergence is achieved
 final etot is -219.608412824317 eV

 ><><><><><><><><><><><><><><><><><><><><><><

    TOTAL-FORCE (eV/Angstrom)

 ><><><><><><><><><><><><><><><><><><><><><><

     atom              x              y              z
       H1    +0.16002510    -0.30887491    -0.43098457
       H2    -0.83438114    +0.05437479    -0.02141281
       H3    +0.29374672    +0.52330577    +0.02732362
       H4    +0.14605261    -0.32566633    +0.68804044
       C1    +0.23455671    +0.05686068    -0.26296669


 ><><><><><><><><><><><><><><><><><><><><><><

 TOTAL-STRESS (KBAR)

 ><><><><><><><><><><><><><><><><><><><><><><

       +2.098185      +0.007527      +0.104271
       +0.007527      +1.613231      -0.120516
       +0.104271      -0.120516      +1.859916

 -------------------------------------------
 STEP OF MOLECULAR DYNAMICS : 2
 -------------------------------------------

output Pressure for check!
Virtual Pressure is +2.031062 Kbar 
Virial Term is +1.857111 Kbar 
Kenetic Term is +0.173952 Kbar 


 ><><><><><><><><><><><><><><><><><><><><><><

 MD STRESS (KBAR)

 ><><><><><><><><><><><><><><><><><><><><><><

       +2.265906      -0.014782      +0.112736
       -0.014782      +1.796291      -0.144526
       +0.112736      -0.144526      +2.030990
                                     nloc = +289
              searching radius is (Bohr)) = +18.890000
         searching radius unit is (Bohr)) = +1.889726

 LCAO ALGORITHM ------------- MD =    4  ELEC =    1 --------------------------------

 Density error is +0.022940518361

 LCAO ALGORITHM ------------- MD =    4  ELEC =    2 --------------------------------

 Density error is +0.005222919162

 LCAO ALGORITHM ------------- MD =    4  ELEC =    3 --------------------------------

 Density error is +0.002973846634

 LCAO ALGORITHM ------------- MD =    4  ELEC =    4 --------------------------------

 Density error is +0.000161676383

 LCAO ALGORITHM ------------- MD =    4  ELEC =    5 --------------------------------

 Density error is +0.000006384706

 LCAO ALGORITHM ------------- MD =    4  ELEC =    6 --------------------------------

 Density error is +0.000002108229

 LCAO ALGORITHM ------------- MD =    4  ELEC =    7 --------------------------------

 Density error is +0.000000600476

 LCAO ALGORITHM ------------- MD =    4  ELEC =    8 --------------------------------

 Density error is +0.000000092867

 LCAO ALGORITHM ------------- MD =    4  ELEC =    9 --------------------------------

 Density error is +0.000000005281

 LCAO ALGORITHM ------------- MD =    4  ELEC =   10 --------------------------------

 Density error is +0.000000000291

 charge density convergence is achieved
 final etot is -219.633913127181 eV

 ><><><><><><><><><><><><><><><><><><><><><><

    TOTAL-FORCE (eV/Angstrom)

 ><><><><><><><><><><><><><><><><><><><><><><

     atom              x              y              z
       H1    -0.10149676    +0.12508314    +0.18002539
       H2    +0.00865439    -0.06285089    +0.05043301
       H3    -0.05771566    -0.19843987    +0.06496074
       H4    -0.05642669    +0.07369607    -0.02676084
       C1    +0.20698471    +0.06251155    -0.26865830


 ><><><><><><><><><><><><><><><><><><><><><><

 TOTAL-STRESS (KBAR)

 ><><><><><><><><><><><><><><><><><><><><><><

       -0.161231      +0.065000      +0.065454
       +0.065000      -0.596004      -0.045760
       +0.065454      -0.045760      -0.344891

 -------------------------------------------
 STEP OF MOLECULAR DYNAMICS : 3
 -------------------------------------------

output Pressure for check!
Virtual Pressure is -0.281288 Kbar 
Virial Term is -0.367375 Kbar 
Kenetic Term is +0.086088 Kbar 


 ><><><><><><><><><><><><><><><><><><><><><><

 MD STRESS (KBAR)

 ><><><><><><><><><><><><><><><><><><><><><><

       -0.072045      +0.056002      +0.072032
       +0.056002      -0.511726      -0.057839
       +0.072032      -0.057839      -0.260091


 --------------------------------------------
 !FINAL_ETOT_IS -219.6339131271808753 eV
 --------------------------------------------






  |CLASS_NAME---------|NAME---------------|TIME(Sec)-----|CALLS----|AVG------|PER%-------
                                      total      +50.10576        11     +4.56   +100.00%
               Run_lcao           lcao_line      +50.07728         1    +50.08    +99.94%
               PW_Basis              gen_pw       +0.32423         1     +0.32     +0.65%
            ORB_control      set_orb_tables       +1.00186         1     +1.00     +2.00%
         ORB_gen_tables          gen_tables       +1.00186         1     +1.00     +2.00%
          ORB_table_phi          init_Table       +0.62925         1     +0.63     +1.26%
          ORB_table_phi      cal_ST_Phi12_R       +0.62412       126     +0.00     +1.25%
         ORB_table_beta     init_Table_Beta       +0.22784         1     +0.23     +0.45%
         ORB_table_beta       VNL_PhiBeta_R       +0.22637        56     +0.00     +0.45%
              Potential            init_pot       +1.98120         8     +0.25     +3.95%
              Potential       set_local_pot       +0.12809         8     +0.02     +0.26%
                    FFT               FFT3D       +8.39921       729     +0.01    +16.76%
                 Charge          atomic_rho       +0.18136         7     +0.03     +0.36%
              Potential            v_of_rho      +11.06614        50     +0.22    +22.09%
          XC_Functional                v_xc      +10.17416        54     +0.19    +20.31%
           H_Hartree_pw           v_hartree       +1.55105        50     +0.03     +3.10%
            Run_MD_LCAO            opt_ions      +48.33155         1    +48.33    +96.46%
                NVT_NHC               setup      +13.23980         1    +13.24    +26.42%
                MD_func        force_stress      +25.25482         2    +12.63    +50.40%
              LOOP_elec     solve_elec_stru      +36.73914         4     +9.18    +73.32%
              LOOP_elec     set_matrix_grid       +0.27334         4     +0.07     +0.55%
         Grid_Technique                init       +0.27228         4     +0.07     +0.54%
           Grid_BigCellgrid_expansion_index       +0.17445         8     +0.02     +0.35%
              LOOP_elec              solver      +36.46298         4     +9.12    +72.77%
               ELEC_scf                 scf      +36.46297         4     +9.12    +72.77%
          ELEC_cbands_k           cal_bands      +13.00063        42     +0.31    +25.95%
                 Gint_k              vlocal       +5.98284        42     +0.14    +11.94%
             Efficience              each_k       +6.96827        42     +0.17    +13.91%
             Efficience                 H_k       +6.91588        42     +0.16    +13.80%
            LCAO_Hamilt        calculate_Hk       +6.91580        42     +0.16    +13.80%
                 Gint_k        folding_vl_k       +6.91479        42     +0.16    +13.80%
                 Gint_k              Distri       +6.91407        42     +0.16    +13.80%
      Local_Orbital_Cha           sum_bands      +11.29601        42     +0.27    +22.54%
                 Gint_k           cal_rho_k       +5.36589        42     +0.13    +10.71%
                 Charge             mix_rho       +2.55638        42     +0.06     +5.10%
      Force_Stress_LCAO      getForceStress      +10.60361         4     +2.65    +21.16%
                 Forces       cal_force_loc       +0.15708         4     +0.04     +0.31%
            Stress_Func          stress_loc       +0.17575         4     +0.04     +0.35%
            Stress_Func          stress_har       +0.14552         4     +0.04     +0.29%
            Stress_Func          stress_gga       +0.41948         4     +0.10     +0.84%
           Force_LCAO_k            ftable_k       +8.43132         4     +2.11    +16.83%
           Force_LCAO_k      cal_fvl_dphi_k       +8.41336         4     +2.10    +16.79%
                 Gint_k     svl_k_RealSpace       +7.44687         4     +1.86    +14.86%
                 Gint_k   evaluate_vl_force       +0.94824    133427     +0.00     +1.89%
                 Gint_k  evaluate_vl_stress       +1.74281    133427     +0.00     +3.48%
                 Gint_k       folding_force       +4.25683         4     +1.06     +8.50%
                MD_func     md_force_stress      +23.39869         2    +11.70    +46.70%
 ----------------------------------------------------------------------------------------

 CLASS_NAME---------|NAME---------------|MEMORY(MB)--------
                                         +1164.1075
        ORB_table_phi               Jl(x)      +131.0928
         Charge_Pulay                Rrho       +26.3672
         Charge_Pulay               dRrho       +23.0713
         Charge_Pulay                drho       +23.0713
              Use_FFT              porter        +6.5918
        Grid_Meshcell        index2normal        +5.8017
        Grid_Meshcell         index2ucell        +5.8017
             PW_Basis           struc_fac        +5.0912
        ORB_table_phi         Table_SR&TR        +3.6736
               Charge                 rho        +3.2959
               Charge            rho_save        +3.2959
               Charge            rho_core        +3.2959
            Potential               vltot        +3.2959
            Potential                  vr        +3.2959
            Potential              vr_eff        +3.2959
            Potential             vr_eff1        +3.2959
            Potential                vnew        +3.2959
         Charge_Pulay           rho_save2        +3.2959
        init_meshball        meshball_pos        +2.1575
               Charge                rhog        +1.2728
               Charge           rhog_save        +1.2728
               Charge               kin_r        +1.2728
               Charge          kin_r_save        +1.2728
               Charge           rhog_core        +1.2728
       ORB_table_beta            Table_NR        +1.1560
 ----------------------------------------------------------

 Start  Time  : Sun Apr 17 15:10:23 2022
 Finish Time  : Sun Apr 17 15:11:13 2022
 Total  Time  : 0 h 0 mins 50 secs 
