-1.102485567163469341e+03
-1.102286772136309992e+03
-1.102582448444244619e+03
-1.102382074498167412e+03
-1.102558468380182831e+03
-1.102399395201307243e+03
-1.102389309418004132e+03
-1.102360557110820082e+03
-1.102375121594416214e+03
-1.102521049894110320e+03
-1.102274390335148382e+03
-1.102471628275085095e+03
-1.102390582080933200e+03
