1.822884009898643187e-01 -5.274239590746834239e-01 -9.548563195458291686e-01 2.789613736246823184e-01 -7.506338870960055365e-01 -2.570326386376730610e-01 -3.073525255197114281e-01 -7.917047952334820282e-01 -4.347748146419553872e-01 -7.844898677900137285e-01 -4.770224653715601226e-01 2.291263454168782632e-01 6.305926186951784640e-01 2.546785106775731222e+00 1.417537478830646736e+00
-7.013399218821873837e-02 -3.915840317727674047e-01 -1.088017054288093588e+00 -1.630964409936665360e+00 -1.271265556699808563e+00 1.039367561845956356e+00 1.259928122106763304e+00 1.942440831001775725e-01 1.194711313698900712e+00 -3.135013706602605699e-01 2.248722749076629945e+00 1.526021226189629987e+00 7.546716506783816003e-01 -7.801172951262992372e-01 -2.672083047446393245e+00
-1.625406815727959142e-01 4.492125371052159699e-01 -1.397382393795030930e+00 7.682351465724771566e-01 2.934175051880993923e-01 1.087980287509848099e+00 6.231359561125039415e-01 1.401325900727722895e-01 -1.018646988334303422e-01 -2.398368935853197603e-01 4.262475446144237123e-01 -4.483735860743396362e-01 -9.889934761047979306e-01 -1.309010176980511586e+00 8.596403911929527686e-01
-1.295794139996353289e+00 -9.142706300370593286e-01 1.060969818126558328e+00 -3.687424522439183283e-01 1.391264247628765327e+00 -1.338350734507355977e+00 -2.082944431291389731e-01 7.127036845737806381e-01 -7.955072514350864932e-01 9.859715554654165937e-01 5.115487841371896272e-02 -4.435574466565744833e-01 8.868595313260615454e-01 -1.240852129157137940e+00 1.516445614472458292e+00
5.026878877358715858e-01 1.208764141987100776e-01 9.159705407436917746e-01 -2.009568226326721441e-01 -2.808611619075952054e-02 -8.529028662239347691e-02 -1.501283612188793803e+00 8.923978936815317731e-01 -7.031130576129059895e-01 1.457543230262418721e+00 3.060224937444362969e-01 -1.056541452519632163e+00 -2.579906831768244979e-01 -1.291210685433918481e+00 9.289742560112400627e-01
-1.182835335793175568e+00 -2.176718227761892388e-01 -3.740601625078476267e-01 1.668757675493200976e-01 7.329675787041763924e-01 -1.425883588914459432e+00 5.500537311075974767e-01 -1.406331221931733655e+00 -1.123798020078078164e+00 4.038106567566133731e-01 6.383543169821226382e-01 7.145120444207205823e-01 6.209518037964469744e-02 2.526812004436914116e-01 2.209229778501732078e+00
-1.340428288877534291e+00 2.445378475719379718e-01 -1.103563230837873999e+00 1.681342815131491975e+00 8.776922622467194790e-01 -5.370636426879304981e-01 3.497984597415049191e-01 -3.886787363824223962e-01 -2.515497092709423343e-01 -3.940486914669076857e-01 5.120029438371406227e-01 4.356704225067770331e+00 -2.966642945285546951e-01 -1.245554368695443337e+00 -2.464527693693091326e+00
7.617710841582981951e-01 7.910596025528565667e-02 5.161706509840293666e-01 -4.458358556223155356e-01 -1.416768770343943107e+00 1.093483425749097071e+00 2.241156917444703467e+00 1.544793777519077427e+00 -1.478168878637510453e+00 2.859328690007177931e-01 -5.241397344691054450e-01 -6.476316292858640133e-02 -2.843025014981403586e+00 3.170087670386858569e-01 -6.672208658909703494e-02
6.264878007368133161e-01 1.279890117279005313e-01 2.746989573139157148e+00 -1.021560562677511913e-01 -6.261929980239714366e-01 5.503806726126119209e-01 3.401340421138017711e-01 -1.326241403259423413e+00 -1.743791625069171403e+00 1.234156873127585513e-01 -1.554137372867795686e-01 1.639499033319846144e-01 -9.878814738956223085e-01 1.979859126842274053e+00 -1.717528575436650051e+00
-1.058985594808849351e+00 -5.598658843351600467e-01 -4.710713895025249454e-02 -6.102734972643131250e-01 -1.142165468359947145e+00 -3.040134849902036973e-01 8.320738949940416074e-01 6.184793279480501615e-01 -5.173369548964599218e-01 -5.168017540181663039e-01 9.183634666537024982e-01 5.618758701086746798e-01 1.353986899675219790e+00 1.651885066712868999e-01 3.065816573061738715e-01
6.957955431448223926e-01 8.842953185092869983e-01 8.013986262837816676e-01 1.850507430326250868e-01 5.196541361010781346e-01 6.270581228871932034e-01 1.322693794824231661e+00 1.307268254444750866e-01 8.646263776995924966e-01 -8.382902573091872700e-01 1.783744000394902773e+00 1.559394302247967934e+00 -1.365249823692491926e+00 -3.318420229027675195e+00 -3.852477429118535301e+00
5.211518038163260869e-01 -4.906120322538662371e-01 -4.221070397412299835e-01 9.792052341386117686e-02 -3.208505096998421346e-01 -1.695909555562050697e-01 1.818926567585665288e-01 -1.412490660018183020e+00 8.947162575937019913e-01 -1.950901817984330641e-02 1.110709406977126390e+00 1.872508361895996731e-01 -7.814559658089104133e-01 1.113243794994764890e+00 -4.902690470637990905e-01
6.002400234583323835e-01 6.640244187545744081e-01 -2.366925884253448520e-01 -5.154429773071718124e-01 -8.233620711663375280e-01 -1.017748644815491821e-01 -9.858113243031605410e-01 1.437004330915159667e+00 9.133340799221130457e-02 7.892895521461864572e-01 -6.080849740725206842e-02 -8.542539810468752215e-01 1.117247260058134156e-01 -1.216858232518212013e+00 1.101388025961557826e+00
