LAMMPS (16 Mar 2018)
clear
units 	metal
dimension	3
boundary	p	p    p
atom_style	atomic
box         tilt large
read_data   conf.lmp
  triclinic box = (0 0 0) to (2.5701 2.22577 2.07739) with tilt (1.28505 1.28505 0.741924)
  1 by 1 by 1 MPI processor grid
  reading atoms ...
  1 atoms
mass            1 1
neigh_modify    every 1 delay 0 check no
pair_style deepmd frozen_model.pb
pair_coeff
compute         mype all pe
thermo          100
thermo_style    custom step pe pxx pyy pzz pxy pxz pyz lx ly lz vol c_mype
dump            1 all custom 100 dump.relax id type xs ys zs fx fy fz
min_style       cg
minimize        1.000000e-12 1.000000e-06 5000 500000
WARNING: Using 'neigh_modify every 1 delay 0 check yes' setting during minimization (../min.cpp:168)
Neighbor list info ...
  update every 1 steps, delay 0 steps, check yes
  max neighbors/atom: 2000, page size: 100000
  master list distance cutoff = 10
  ghost atom cutoff = 10
  binsize = 5, bins = 2 1 1
  1 neighbor lists, perpetual/occasional/extra = 1 0 0
  (1) pair deepmd, perpetual
      attributes: , newton on
      pair build: full/bin/atomonly
      stencil: full/bin/3d
      bin: standard
Per MPI rank memory allocation (min/avg/max) = 5.171 | 5.171 | 5.171 Mbytes
Step PotEng Pxx Pyy Pzz Pxy Pxz Pyz Lx Ly Lz Volume c_mype 
       0   -3.7262147    9217.1151    9217.0563    24830.025 -3.6035766e-11 4.7330159e-11  0.012655686       2.5701     2.225772     2.077387    11.883602   -3.7262147 
       1   -3.7262147    9217.1151    9217.0563    24830.025 1.2325134e-11 -2.8017725e-12  0.012655686       2.5701     2.225772     2.077387    11.883602   -3.7262147 
Loop time of 0.0363162 on 1 procs for 1 steps with 1 atoms

289.9% CPU use with 1 MPI tasks x no OpenMP threads

Minimization stats:
  Stopping criterion = quadratic factors are zero
  Energy initial, next-to-last, final = 
        -3.72621474576     -3.72621474576     -3.72621474576
  Force two-norm initial, final = 9.50147e-18 1.04444e-17
  Force max component initial, final = 8.67362e-18 8.67362e-18
  Final line search alpha, max atom move = 1 8.67362e-18
  Iterations, force evaluations = 1 2

MPI task timing breakdown:
Section |  min time  |  avg time  |  max time  |%varavg| %total
---------------------------------------------------------------
Pair    | 0.036072   | 0.036072   | 0.036072   |   0.0 | 99.33
Neigh   | 0          | 0          | 0          |   0.0 |  0.00
Comm    | 8.9884e-05 | 8.9884e-05 | 8.9884e-05 |   0.0 |  0.25
Output  | 0          | 0          | 0          |   0.0 |  0.00
Modify  | 0          | 0          | 0          |   0.0 |  0.00
Other   |            | 0.0001543  |            |       |  0.42

Nlocal:    1 ave 1 max 1 min
Histogram: 1 0 0 0 0 0 0 0 0 0
Nghost:    999 ave 999 max 999 min
Histogram: 1 0 0 0 0 0 0 0 0 0
Neighs:    0 ave 0 max 0 min
Histogram: 1 0 0 0 0 0 0 0 0 0

Total # of neighbors = 0
Ave neighs/atom = 0
Neighbor list builds = 0
Dangerous builds not checked
variable        N equal count(all)
variable        V equal vol
variable        E equal "c_mype"
variable        Pxx equal pxx
variable        Pyy equal pyy
variable        Pzz equal pzz
variable        Pxy equal pxy
variable        Pxz equal pxz
variable        Pyz equal pyz
variable        Epa equal ${E}/${N}
variable        Epa equal -3.7262147457615/${N}
variable        Epa equal -3.7262147457615/1
variable        Vpa equal ${V}/${N}
variable        Vpa equal 11.8836022106353/${N}
variable        Vpa equal 11.8836022106353/1
print "All done"
All done
print "Total number of atoms = ${N}"
Total number of atoms = 1
print "Final energy per atoms = ${Epa}"
Final energy per atoms = -3.7262147457615
print "Final volume per atoms = ${Vpa}"
Final volume per atoms = 11.8836022106353
print "Final Stress (xx yy zz xy xz yz) = ${Pxx} ${Pyy} ${Pzz} ${Pxy} ${Pxz} ${Pyz}"
Final Stress (xx yy zz xy xz yz) = 9217.11508846235 9217.05634958731 24830.0253975909 1.23251337539336e-11 -2.80177248609629e-12 0.0126556857886706
Total wall time: 0:00:01
