
500 atoms
1 atom types
   0.0000000000   13.6776800000 xlo xhi
   0.0000000000   12.8954410000 ylo yhi
   0.0000000000   62.4375610000 zlo zhi
  -4.5592270000    0.0000000000    0.0000000000 xy xz yz

Atoms # atomic

     1      1    0.0000000000    0.0000000000    9.9999997698
     2      1    0.9118453000    1.2895441000   12.2335786394
     3      1    2.7355360000    0.0000000000    9.9999997698
     4      1    3.6473813000    1.2895441000   12.2335786394
     5      1    5.4710720000    0.0000000000    9.9999997698
     6      1    6.3829173000    1.2895441000   12.2335786394
     7      1    8.2066080000    0.0000000000    9.9999997698
     8      1    9.1184533000    1.2895441000   12.2335786394
     9      1   10.9421440000    0.0000000000    9.9999997698
    10      1   11.8539893000    1.2895441000   12.2335786394
    11      1   -0.9118454000    2.5790882000    9.9999997698
    12      1   -0.0000001000    3.8686323000   12.2335786394
    13      1    1.8236906000    2.5790882000    9.9999997698
    14      1    2.7355359000    3.8686323000   12.2335786394
    15      1    4.5592266000    2.5790882000    9.9999997698
    16      1    5.4710719000    3.8686323000   12.2335786394
    17      1    7.2947626000    2.5790882000    9.9999997698
    18      1    8.2066079000    3.8686323000   12.2335786394
    19      1   10.0302986000    2.5790882000    9.9999997698
    20      1   10.9421439000    3.8686323000   12.2335786394
    21      1   -1.8236908000    5.1581764000    9.9999997698
    22      1   -0.9118455000    6.4477205000   12.2335786394
    23      1    0.9118452000    5.1581764000    9.9999997698
    24      1    1.8236905000    6.4477205000   12.2335786394
    25      1    3.6473812000    5.1581764000    9.9999997698
    26      1    4.5592265000    6.4477205000   12.2335786394
    27      1    6.3829172000    5.1581764000    9.9999997698
    28      1    7.2947625000    6.4477205000   12.2335786394
    29      1    9.1184532000    5.1581764000    9.9999997698
    30      1   10.0302985000    6.4477205000   12.2335786394
    31      1   -2.7355362000    7.7372646000    9.9999997698
    32      1   -1.8236909000    9.0268087000   12.2335786394
    33      1   -0.0000002000    7.7372646000    9.9999997698
    34      1    0.9118451000    9.0268087000   12.2335786394
    35      1    2.7355358000    7.7372646000    9.9999997698
    36      1    3.6473811000    9.0268087000   12.2335786394
    37      1    5.4710718000    7.7372646000    9.9999997698
    38      1    6.3829171000    9.0268087000   12.2335786394
    39      1    8.2066078000    7.7372646000    9.9999997698
    40      1    9.1184531000    9.0268087000   12.2335786394
    41      1   -3.6473816000   10.3163528000    9.9999997698
    42      1   -2.7355363000   11.6058969000   12.2335786394
    43      1   -0.9118456000   10.3163528000    9.9999997698
    44      1   -0.0000003000   11.6058969000   12.2335786394
    45      1    1.8236904000   10.3163528000    9.9999997698
    46      1    2.7355357000   11.6058969000   12.2335786394
    47      1    4.5592264000   10.3163528000    9.9999997698
    48      1    5.4710717000   11.6058969000   12.2335786394
    49      1    7.2947624000   10.3163528000    9.9999997698
    50      1    8.2066077000   11.6058969000   12.2335786394
    51      1    0.0000000000    0.0000000000   14.4670950715
    52      1    0.9118453000    1.2895441000   16.7006739412
    53      1    2.7355360000    0.0000000000   14.4670950715
    54      1    3.6473813000    1.2895441000   16.7006739412
    55      1    5.4710720000    0.0000000000   14.4670950715
    56      1    6.3829173000    1.2895441000   16.7006739412
    57      1    8.2066080000    0.0000000000   14.4670950715
    58      1    9.1184533000    1.2895441000   16.7006739412
    59      1   10.9421440000    0.0000000000   14.4670950715
    60      1   11.8539893000    1.2895441000   16.7006739412
    61      1   -0.9118454000    2.5790882000   14.4670950715
    62      1   -0.0000001000    3.8686323000   16.7006739412
    63      1    1.8236906000    2.5790882000   14.4670950715
    64      1    2.7355359000    3.8686323000   16.7006739412
    65      1    4.5592266000    2.5790882000   14.4670950715
    66      1    5.4710719000    3.8686323000   16.7006739412
    67      1    7.2947626000    2.5790882000   14.4670950715
    68      1    8.2066079000    3.8686323000   16.7006739412
    69      1   10.0302986000    2.5790882000   14.4670950715
    70      1   10.9421439000    3.8686323000   16.7006739412
    71      1   -1.8236908000    5.1581764000   14.4670950715
    72      1   -0.9118455000    6.4477205000   16.7006739412
    73      1    0.9118452000    5.1581764000   14.4670950715
    74      1    1.8236905000    6.4477205000   16.7006739412
    75      1    3.6473812000    5.1581764000   14.4670950715
    76      1    4.5592265000    6.4477205000   16.7006739412
    77      1    6.3829172000    5.1581764000   14.4670950715
    78      1    7.2947625000    6.4477205000   16.7006739412
    79      1    9.1184532000    5.1581764000   14.4670950715
    80      1   10.0302985000    6.4477205000   16.7006739412
    81      1   -2.7355362000    7.7372646000   14.4670950715
    82      1   -1.8236909000    9.0268087000   16.7006739412
    83      1   -0.0000002000    7.7372646000   14.4670950715
    84      1    0.9118451000    9.0268087000   16.7006739412
    85      1    2.7355358000    7.7372646000   14.4670950715
    86      1    3.6473811000    9.0268087000   16.7006739412
    87      1    5.4710718000    7.7372646000   14.4670950715
    88      1    6.3829171000    9.0268087000   16.7006739412
    89      1    8.2066078000    7.7372646000   14.4670950715
    90      1    9.1184531000    9.0268087000   16.7006739412
    91      1   -3.6473816000   10.3163528000   14.4670950715
    92      1   -2.7355363000   11.6058969000   16.7006739412
    93      1   -0.9118456000   10.3163528000   14.4670950715
    94      1   -0.0000003000   11.6058969000   16.7006739412
    95      1    1.8236904000   10.3163528000   14.4670950715
    96      1    2.7355357000   11.6058969000   16.7006739412
    97      1    4.5592264000   10.3163528000   14.4670950715
    98      1    5.4710717000   11.6058969000   16.7006739412
    99      1    7.2947624000   10.3163528000   14.4670950715
   100      1    8.2066077000   11.6058969000   16.7006739412
   101      1    0.0000000000    0.0000000000   18.9342528108
   102      1    0.9118453000    1.2895441000   21.1677692429
   103      1    2.7355360000    0.0000000000   18.9342528108
   104      1    3.6473813000    1.2895441000   21.1677692429
   105      1    5.4710720000    0.0000000000   18.9342528108
   106      1    6.3829173000    1.2895441000   21.1677692429
   107      1    8.2066080000    0.0000000000   18.9342528108
   108      1    9.1184533000    1.2895441000   21.1677692429
   109      1   10.9421440000    0.0000000000   18.9342528108
   110      1   11.8539893000    1.2895441000   21.1677692429
   111      1   -0.9118454000    2.5790882000   18.9342528108
   112      1   -0.0000001000    3.8686323000   21.1677692429
   113      1    1.8236906000    2.5790882000   18.9342528108
   114      1    2.7355359000    3.8686323000   21.1677692429
   115      1    4.5592266000    2.5790882000   18.9342528108
   116      1    5.4710719000    3.8686323000   21.1677692429
   117      1    7.2947626000    2.5790882000   18.9342528108
   118      1    8.2066079000    3.8686323000   21.1677692429
   119      1   10.0302986000    2.5790882000   18.9342528108
   120      1   10.9421439000    3.8686323000   21.1677692429
   121      1   -1.8236908000    5.1581764000   18.9342528108
   122      1   -0.9118455000    6.4477205000   21.1677692429
   123      1    0.9118452000    5.1581764000   18.9342528108
   124      1    1.8236905000    6.4477205000   21.1677692429
   125      1    3.6473812000    5.1581764000   18.9342528108
   126      1    4.5592265000    6.4477205000   21.1677692429
   127      1    6.3829172000    5.1581764000   18.9342528108
   128      1    7.2947625000    6.4477205000   21.1677692429
   129      1    9.1184532000    5.1581764000   18.9342528108
   130      1   10.0302985000    6.4477205000   21.1677692429
   131      1   -2.7355362000    7.7372646000   18.9342528108
   132      1   -1.8236909000    9.0268087000   21.1677692429
   133      1   -0.0000002000    7.7372646000   18.9342528108
   134      1    0.9118451000    9.0268087000   21.1677692429
   135      1    2.7355358000    7.7372646000   18.9342528108
   136      1    3.6473811000    9.0268087000   21.1677692429
   137      1    5.4710718000    7.7372646000   18.9342528108
   138      1    6.3829171000    9.0268087000   21.1677692429
   139      1    8.2066078000    7.7372646000   18.9342528108
   140      1    9.1184531000    9.0268087000   21.1677692429
   141      1   -3.6473816000   10.3163528000   18.9342528108
   142      1   -2.7355363000   11.6058969000   21.1677692429
   143      1   -0.9118456000   10.3163528000   18.9342528108
   144      1   -0.0000003000   11.6058969000   21.1677692429
   145      1    1.8236904000   10.3163528000   18.9342528108
   146      1    2.7355357000   11.6058969000   21.1677692429
   147      1    4.5592264000   10.3163528000   18.9342528108
   148      1    5.4710717000   11.6058969000   21.1677692429
   149      1    7.2947624000   10.3163528000   18.9342528108
   150      1    8.2066077000   11.6058969000   21.1677692429
   151      1    0.0000000000    0.0000000000   23.4013481126
   152      1    0.9118453000    1.2895441000   25.6348645446
   153      1    2.7355360000    0.0000000000   23.4013481126
   154      1    3.6473813000    1.2895441000   25.6348645446
   155      1    5.4710720000    0.0000000000   23.4013481126
   156      1    6.3829173000    1.2895441000   25.6348645446
   157      1    8.2066080000    0.0000000000   23.4013481126
   158      1    9.1184533000    1.2895441000   25.6348645446
   159      1   10.9421440000    0.0000000000   23.4013481126
   160      1   11.8539893000    1.2895441000   25.6348645446
   161      1   -0.9118454000    2.5790882000   23.4013481126
   162      1   -0.0000001000    3.8686323000   25.6348645446
   163      1    1.8236906000    2.5790882000   23.4013481126
   164      1    2.7355359000    3.8686323000   25.6348645446
   165      1    4.5592266000    2.5790882000   23.4013481126
   166      1    5.4710719000    3.8686323000   25.6348645446
   167      1    7.2947626000    2.5790882000   23.4013481126
   168      1    8.2066079000    3.8686323000   25.6348645446
   169      1   10.0302986000    2.5790882000   23.4013481126
   170      1   10.9421439000    3.8686323000   25.6348645446
   171      1   -1.8236908000    5.1581764000   23.4013481126
   172      1   -0.9118455000    6.4477205000   25.6348645446
   173      1    0.9118452000    5.1581764000   23.4013481126
   174      1    1.8236905000    6.4477205000   25.6348645446
   175      1    3.6473812000    5.1581764000   23.4013481126
   176      1    4.5592265000    6.4477205000   25.6348645446
   177      1    6.3829172000    5.1581764000   23.4013481126
   178      1    7.2947625000    6.4477205000   25.6348645446
   179      1    9.1184532000    5.1581764000   23.4013481126
   180      1   10.0302985000    6.4477205000   25.6348645446
   181      1   -2.7355362000    7.7372646000   23.4013481126
   182      1   -1.8236909000    9.0268087000   25.6348645446
   183      1   -0.0000002000    7.7372646000   23.4013481126
   184      1    0.9118451000    9.0268087000   25.6348645446
   185      1    2.7355358000    7.7372646000   23.4013481126
   186      1    3.6473811000    9.0268087000   25.6348645446
   187      1    5.4710718000    7.7372646000   23.4013481126
   188      1    6.3829171000    9.0268087000   25.6348645446
   189      1    8.2066078000    7.7372646000   23.4013481126
   190      1    9.1184531000    9.0268087000   25.6348645446
   191      1   -3.6473816000   10.3163528000   23.4013481126
   192      1   -2.7355363000   11.6058969000   25.6348645446
   193      1   -0.9118456000   10.3163528000   23.4013481126
   194      1   -0.0000003000   11.6058969000   25.6348645446
   195      1    1.8236904000   10.3163528000   23.4013481126
   196      1    2.7355357000   11.6058969000   25.6348645446
   197      1    4.5592264000   10.3163528000   23.4013481126
   198      1    5.4710717000   11.6058969000   25.6348645446
   199      1    7.2947624000   10.3163528000   23.4013481126
   200      1    8.2066077000   11.6058969000   25.6348645446
   201      1    0.0000000000    0.0000000000   27.8684434143
   202      1    0.9118453000    1.2895441000   30.1020222840
   203      1    2.7355360000    0.0000000000   27.8684434143
   204      1    3.6473813000    1.2895441000   30.1020222840
   205      1    5.4710720000    0.0000000000   27.8684434143
   206      1    6.3829173000    1.2895441000   30.1020222840
   207      1    8.2066080000    0.0000000000   27.8684434143
   208      1    9.1184533000    1.2895441000   30.1020222840
   209      1   10.9421440000    0.0000000000   27.8684434143
   210      1   11.8539893000    1.2895441000   30.1020222840
   211      1   -0.9118454000    2.5790882000   27.8684434143
   212      1   -0.0000001000    3.8686323000   30.1020222840
   213      1    1.8236906000    2.5790882000   27.8684434143
   214      1    2.7355359000    3.8686323000   30.1020222840
   215      1    4.5592266000    2.5790882000   27.8684434143
   216      1    5.4710719000    3.8686323000   30.1020222840
   217      1    7.2947626000    2.5790882000   27.8684434143
   218      1    8.2066079000    3.8686323000   30.1020222840
   219      1   10.0302986000    2.5790882000   27.8684434143
   220      1   10.9421439000    3.8686323000   30.1020222840
   221      1   -1.8236908000    5.1581764000   27.8684434143
   222      1   -0.9118455000    6.4477205000   30.1020222840
   223      1    0.9118452000    5.1581764000   27.8684434143
   224      1    1.8236905000    6.4477205000   30.1020222840
   225      1    3.6473812000    5.1581764000   27.8684434143
   226      1    4.5592265000    6.4477205000   30.1020222840
   227      1    6.3829172000    5.1581764000   27.8684434143
   228      1    7.2947625000    6.4477205000   30.1020222840
   229      1    9.1184532000    5.1581764000   27.8684434143
   230      1   10.0302985000    6.4477205000   30.1020222840
   231      1   -2.7355362000    7.7372646000   27.8684434143
   232      1   -1.8236909000    9.0268087000   30.1020222840
   233      1   -0.0000002000    7.7372646000   27.8684434143
   234      1    0.9118451000    9.0268087000   30.1020222840
   235      1    2.7355358000    7.7372646000   27.8684434143
   236      1    3.6473811000    9.0268087000   30.1020222840
   237      1    5.4710718000    7.7372646000   27.8684434143
   238      1    6.3829171000    9.0268087000   30.1020222840
   239      1    8.2066078000    7.7372646000   27.8684434143
   240      1    9.1184531000    9.0268087000   30.1020222840
   241      1   -3.6473816000   10.3163528000   27.8684434143
   242      1   -2.7355363000   11.6058969000   30.1020222840
   243      1   -0.9118456000   10.3163528000   27.8684434143
   244      1   -0.0000003000   11.6058969000   30.1020222840
   245      1    1.8236904000   10.3163528000   27.8684434143
   246      1    2.7355357000   11.6058969000   30.1020222840
   247      1    4.5592264000   10.3163528000   27.8684434143
   248      1    5.4710717000   11.6058969000   30.1020222840
   249      1    7.2947624000   10.3163528000   27.8684434143
   250      1    8.2066077000   11.6058969000   30.1020222840
   251      1   -1.8236910000   12.8954410000   32.3355387160
   252      1    3.6473813000    1.2895441000   34.5691175857
   253      1    0.9118450000   12.8954410000   32.3355387160
   254      1    6.3829173000    1.2895441000   34.5691175857
   255      1    3.6473810000   12.8954410000   32.3355387160
   256      1    9.1184533000    1.2895441000   34.5691175857
   257      1    6.3829170000   12.8954410000   32.3355387160
   258      1   11.8539893000    1.2895441000   34.5691175857
   259      1   -4.5592270000   12.8954410000   32.3355387160
   260      1    0.9118453000    1.2895441000   34.5691175857
   261      1    1.8236906000    2.5790882000   32.3355387160
   262      1    2.7355359000    3.8686323000   34.5691175857
   263      1    4.5592266000    2.5790882000   32.3355387160
   264      1    5.4710719000    3.8686323000   34.5691175857
   265      1    7.2947626000    2.5790882000   32.3355387160
   266      1    8.2066079000    3.8686323000   34.5691175857
   267      1   10.0302986000    2.5790882000   32.3355387160
   268      1   10.9421439000    3.8686323000   34.5691175857
   269      1   -0.9118454000    2.5790882000   32.3355387160
   270      1   -0.0000001000    3.8686323000   34.5691175857
   271      1    0.9118452000    5.1581764000   32.3355387160
   272      1    1.8236905000    6.4477205000   34.5691175857
   273      1    3.6473812000    5.1581764000   32.3355387160
   274      1    4.5592265000    6.4477205000   34.5691175857
   275      1    6.3829172000    5.1581764000   32.3355387160
   276      1    7.2947625000    6.4477205000   34.5691175857
   277      1    9.1184532000    5.1581764000   32.3355387160
   278      1   10.0302985000    6.4477205000   34.5691175857
   279      1   -1.8236908000    5.1581764000   32.3355387160
   280      1   -0.9118455000    6.4477205000   34.5691175857
   281      1   -0.0000002000    7.7372646000   32.3355387160
   282      1    0.9118451000    9.0268087000   34.5691175857
   283      1    2.7355358000    7.7372646000   32.3355387160
   284      1    3.6473811000    9.0268087000   34.5691175857
   285      1    5.4710718000    7.7372646000   32.3355387160
   286      1    6.3829171000    9.0268087000   34.5691175857
   287      1    8.2066078000    7.7372646000   32.3355387160
   288      1    9.1184531000    9.0268087000   34.5691175857
   289      1   -2.7355362000    7.7372646000   32.3355387160
   290      1   -1.8236909000    9.0268087000   34.5691175857
   291      1   -0.9118456000   10.3163528000   32.3355387160
   292      1   -0.0000003000   11.6058969000   34.5691175857
   293      1    1.8236904000   10.3163528000   32.3355387160
   294      1    2.7355357000   11.6058969000   34.5691175857
   295      1    4.5592264000   10.3163528000   32.3355387160
   296      1    5.4710717000   11.6058969000   34.5691175857
   297      1    7.2947624000   10.3163528000   32.3355387160
   298      1    8.2066077000   11.6058969000   34.5691175857
   299      1   -3.6473816000   10.3163528000   32.3355387160
   300      1   -2.7355363000   11.6058969000   34.5691175857
   301      1   -1.8236910000   12.8954410000   36.8026964554
   302      1    3.6473813000    1.2895441000   39.0362128874
   303      1    0.9118450000   12.8954410000   36.8026964554
   304      1    6.3829173000    1.2895441000   39.0362128874
   305      1    3.6473810000   12.8954410000   36.8026964554
   306      1    9.1184533000    1.2895441000   39.0362128874
   307      1    6.3829170000   12.8954410000   36.8026964554
   308      1   11.8539893000    1.2895441000   39.0362128874
   309      1   -4.5592270000   12.8954410000   36.8026964554
   310      1    0.9118453000    1.2895441000   39.0362128874
   311      1    1.8236906000    2.5790882000   36.8026964554
   312      1    2.7355359000    3.8686323000   39.0362128874
   313      1    4.5592266000    2.5790882000   36.8026964554
   314      1    5.4710719000    3.8686323000   39.0362128874
   315      1    7.2947626000    2.5790882000   36.8026964554
   316      1    8.2066079000    3.8686323000   39.0362128874
   317      1   10.0302986000    2.5790882000   36.8026964554
   318      1   10.9421439000    3.8686323000   39.0362128874
   319      1   -0.9118454000    2.5790882000   36.8026964554
   320      1   -0.0000001000    3.8686323000   39.0362128874
   321      1    0.9118452000    5.1581764000   36.8026964554
   322      1    1.8236905000    6.4477205000   39.0362128874
   323      1    3.6473812000    5.1581764000   36.8026964554
   324      1    4.5592265000    6.4477205000   39.0362128874
   325      1    6.3829172000    5.1581764000   36.8026964554
   326      1    7.2947625000    6.4477205000   39.0362128874
   327      1    9.1184532000    5.1581764000   36.8026964554
   328      1   10.0302985000    6.4477205000   39.0362128874
   329      1   -1.8236908000    5.1581764000   36.8026964554
   330      1   -0.9118455000    6.4477205000   39.0362128874
   331      1   -0.0000002000    7.7372646000   36.8026964554
   332      1    0.9118451000    9.0268087000   39.0362128874
   333      1    2.7355358000    7.7372646000   36.8026964554
   334      1    3.6473811000    9.0268087000   39.0362128874
   335      1    5.4710718000    7.7372646000   36.8026964554
   336      1    6.3829171000    9.0268087000   39.0362128874
   337      1    8.2066078000    7.7372646000   36.8026964554
   338      1    9.1184531000    9.0268087000   39.0362128874
   339      1   -2.7355362000    7.7372646000   36.8026964554
   340      1   -1.8236909000    9.0268087000   39.0362128874
   341      1   -0.9118456000   10.3163528000   36.8026964554
   342      1   -0.0000003000   11.6058969000   39.0362128874
   343      1    1.8236904000   10.3163528000   36.8026964554
   344      1    2.7355357000   11.6058969000   39.0362128874
   345      1    4.5592264000   10.3163528000   36.8026964554
   346      1    5.4710717000   11.6058969000   39.0362128874
   347      1    7.2947624000   10.3163528000   36.8026964554
   348      1    8.2066077000   11.6058969000   39.0362128874
   349      1   -3.6473816000   10.3163528000   36.8026964554
   350      1   -2.7355363000   11.6058969000   39.0362128874
   351      1   -1.8236910000   12.8954410000   41.2697917571
   352      1    3.6473813000    1.2895441000   43.5033081892
   353      1    0.9118450000   12.8954410000   41.2697917571
   354      1    6.3829173000    1.2895441000   43.5033081892
   355      1    3.6473810000   12.8954410000   41.2697917571
   356      1    9.1184533000    1.2895441000   43.5033081892
   357      1    6.3829170000   12.8954410000   41.2697917571
   358      1   11.8539893000    1.2895441000   43.5033081892
   359      1   -4.5592270000   12.8954410000   41.2697917571
   360      1    0.9118453000    1.2895441000   43.5033081892
   361      1    1.8236906000    2.5790882000   41.2697917571
   362      1    2.7355359000    3.8686323000   43.5033081892
   363      1    4.5592266000    2.5790882000   41.2697917571
   364      1    5.4710719000    3.8686323000   43.5033081892
   365      1    7.2947626000    2.5790882000   41.2697917571
   366      1    8.2066079000    3.8686323000   43.5033081892
   367      1   10.0302986000    2.5790882000   41.2697917571
   368      1   10.9421439000    3.8686323000   43.5033081892
   369      1   -0.9118454000    2.5790882000   41.2697917571
   370      1   -0.0000001000    3.8686323000   43.5033081892
   371      1    0.9118452000    5.1581764000   41.2697917571
   372      1    1.8236905000    6.4477205000   43.5033081892
   373      1    3.6473812000    5.1581764000   41.2697917571
   374      1    4.5592265000    6.4477205000   43.5033081892
   375      1    6.3829172000    5.1581764000   41.2697917571
   376      1    7.2947625000    6.4477205000   43.5033081892
   377      1    9.1184532000    5.1581764000   41.2697917571
   378      1   10.0302985000    6.4477205000   43.5033081892
   379      1   -1.8236908000    5.1581764000   41.2697917571
   380      1   -0.9118455000    6.4477205000   43.5033081892
   381      1   -0.0000002000    7.7372646000   41.2697917571
   382      1    0.9118451000    9.0268087000   43.5033081892
   383      1    2.7355358000    7.7372646000   41.2697917571
   384      1    3.6473811000    9.0268087000   43.5033081892
   385      1    5.4710718000    7.7372646000   41.2697917571
   386      1    6.3829171000    9.0268087000   43.5033081892
   387      1    8.2066078000    7.7372646000   41.2697917571
   388      1    9.1184531000    9.0268087000   43.5033081892
   389      1   -2.7355362000    7.7372646000   41.2697917571
   390      1   -1.8236909000    9.0268087000   43.5033081892
   391      1   -0.9118456000   10.3163528000   41.2697917571
   392      1   -0.0000003000   11.6058969000   43.5033081892
   393      1    1.8236904000   10.3163528000   41.2697917571
   394      1    2.7355357000   11.6058969000   43.5033081892
   395      1    4.5592264000   10.3163528000   41.2697917571
   396      1    5.4710717000   11.6058969000   43.5033081892
   397      1    7.2947624000   10.3163528000   41.2697917571
   398      1    8.2066077000   11.6058969000   43.5033081892
   399      1   -3.6473816000   10.3163528000   41.2697917571
   400      1   -2.7355363000   11.6058969000   43.5033081892
   401      1   -1.8236910000   12.8954410000   45.7368870588
   402      1    3.6473813000    1.2895441000   47.9704659285
   403      1    0.9118450000   12.8954410000   45.7368870588
   404      1    6.3829173000    1.2895441000   47.9704659285
   405      1    3.6473810000   12.8954410000   45.7368870588
   406      1    9.1184533000    1.2895441000   47.9704659285
   407      1    6.3829170000   12.8954410000   45.7368870588
   408      1   11.8539893000    1.2895441000   47.9704659285
   409      1   -4.5592270000   12.8954410000   45.7368870588
   410      1    0.9118453000    1.2895441000   47.9704659285
   411      1    1.8236906000    2.5790882000   45.7368870588
   412      1    2.7355359000    3.8686323000   47.9704659285
   413      1    4.5592266000    2.5790882000   45.7368870588
   414      1    5.4710719000    3.8686323000   47.9704659285
   415      1    7.2947626000    2.5790882000   45.7368870588
   416      1    8.2066079000    3.8686323000   47.9704659285
   417      1   10.0302986000    2.5790882000   45.7368870588
   418      1   10.9421439000    3.8686323000   47.9704659285
   419      1   -0.9118454000    2.5790882000   45.7368870588
   420      1   -0.0000001000    3.8686323000   47.9704659285
   421      1    0.9118452000    5.1581764000   45.7368870588
   422      1    1.8236905000    6.4477205000   47.9704659285
   423      1    3.6473812000    5.1581764000   45.7368870588
   424      1    4.5592265000    6.4477205000   47.9704659285
   425      1    6.3829172000    5.1581764000   45.7368870588
   426      1    7.2947625000    6.4477205000   47.9704659285
   427      1    9.1184532000    5.1581764000   45.7368870588
   428      1   10.0302985000    6.4477205000   47.9704659285
   429      1   -1.8236908000    5.1581764000   45.7368870588
   430      1   -0.9118455000    6.4477205000   47.9704659285
   431      1   -0.0000002000    7.7372646000   45.7368870588
   432      1    0.9118451000    9.0268087000   47.9704659285
   433      1    2.7355358000    7.7372646000   45.7368870588
   434      1    3.6473811000    9.0268087000   47.9704659285
   435      1    5.4710718000    7.7372646000   45.7368870588
   436      1    6.3829171000    9.0268087000   47.9704659285
   437      1    8.2066078000    7.7372646000   45.7368870588
   438      1    9.1184531000    9.0268087000   47.9704659285
   439      1   -2.7355362000    7.7372646000   45.7368870588
   440      1   -1.8236909000    9.0268087000   47.9704659285
   441      1   -0.9118456000   10.3163528000   45.7368870588
   442      1   -0.0000003000   11.6058969000   47.9704659285
   443      1    1.8236904000   10.3163528000   45.7368870588
   444      1    2.7355357000   11.6058969000   47.9704659285
   445      1    4.5592264000   10.3163528000   45.7368870588
   446      1    5.4710717000   11.6058969000   47.9704659285
   447      1    7.2947624000   10.3163528000   45.7368870588
   448      1    8.2066077000   11.6058969000   47.9704659285
   449      1   -3.6473816000   10.3163528000   45.7368870588
   450      1   -2.7355363000   11.6058969000   47.9704659285
   451      1   -1.8236910000   12.8954410000   50.2039823606
   452      1    3.6473813000    1.2895441000   52.4375612302
   453      1    0.9118450000   12.8954410000   50.2039823606
   454      1    6.3829173000    1.2895441000   52.4375612302
   455      1    3.6473810000   12.8954410000   50.2039823606
   456      1    9.1184533000    1.2895441000   52.4375612302
   457      1    6.3829170000   12.8954410000   50.2039823606
   458      1   11.8539893000    1.2895441000   52.4375612302
   459      1   -4.5592270000   12.8954410000   50.2039823606
   460      1    0.9118453000    1.2895441000   52.4375612302
   461      1    1.8236906000    2.5790882000   50.2039823606
   462      1    2.7355359000    3.8686323000   52.4375612302
   463      1    4.5592266000    2.5790882000   50.2039823606
   464      1    5.4710719000    3.8686323000   52.4375612302
   465      1    7.2947626000    2.5790882000   50.2039823606
   466      1    8.2066079000    3.8686323000   52.4375612302
   467      1   10.0302986000    2.5790882000   50.2039823606
   468      1   10.9421439000    3.8686323000   52.4375612302
   469      1   -0.9118454000    2.5790882000   50.2039823606
   470      1   -0.0000001000    3.8686323000   52.4375612302
   471      1    0.9118452000    5.1581764000   50.2039823606
   472      1    1.8236905000    6.4477205000   52.4375612302
   473      1    3.6473812000    5.1581764000   50.2039823606
   474      1    4.5592265000    6.4477205000   52.4375612302
   475      1    6.3829172000    5.1581764000   50.2039823606
   476      1    7.2947625000    6.4477205000   52.4375612302
   477      1    9.1184532000    5.1581764000   50.2039823606
   478      1   10.0302985000    6.4477205000   52.4375612302
   479      1   -1.8236908000    5.1581764000   50.2039823606
   480      1   -0.9118455000    6.4477205000   52.4375612302