5.126830000000000354e+01 1.103790000000000049e+01 6.602129999999999654e+01 5.276290000000000191e+01 1.048709999999999987e+01 6.773940000000000339e+01 5.364600000000000080e+01 1.033489999999999931e+01 6.690709999999999980e+01 5.323539999999999850e+01 1.015840000000000032e+01 6.661560000000000059e+01 5.356759999999999877e+01 1.228819999999999979e+01 6.729110000000000014e+01 5.415829999999999700e+01 1.330910000000000082e+01 6.900879999999999370e+01 5.151786299999999841e+01 9.980112000000000094e+00 6.610438499999999351e+01 5.417099999999999937e+01 1.235650000000000048e+01 6.813039999999999452e+01 5.466839999999999833e+01 1.126810000000000045e+01 7.238590000000000657e+01 5.407770000000000010e+01 1.160950000000000060e+01 7.142210000000000036e+01
