9.403460405453595294e-01 -4.785991276668652539e+00 2.997123890002813540e-01 -5.528290315113623121e-01 8.342955339972888407e-01 2.323419112779618434e+00 1.346130991018452328e+01 5.034978212940710129e+00 8.187487352404920316e+00 -1.196497829451576678e+01 -5.861634484593715833e+00 -1.014363360420702698e+01 -1.298184751913327828e+00 1.063233880335473502e+00 -1.887082558526339549e+00 -2.328960971835676852e-01 -2.666474082592277917e+00 -3.102232292852650453e+00 -1.470238978767851368e+00 4.786941453631480492e+00 -5.733725074226267981e-01 1.125931675923873332e+00 1.600778730730847421e+00 4.861568551809577698e+00 -4.462812632863819573e+00 2.573643263995156083e+00 -7.316349244034599408e+00 4.454352108679872302e+00 -2.579771180354242244e+00 7.350482801048844550e+00
