1.025655610217515346e+01 0.000000000000000000e+00 0.000000000000000000e+00 -2.453176520368934022e-01 9.812844512520625173e+00 0.000000000000000000e+00 -2.571030495450233877e-01 -3.012911137533678674e-01 9.829343206252350029e+00
1.025655610217515346e+01 0.000000000000000000e+00 0.000000000000000000e+00 -2.453176520368934022e-01 9.812844512520625173e+00 0.000000000000000000e+00 -2.571030495450233877e-01 -3.012911137533678674e-01 9.829343206252350029e+00
