5.347517871106284737e+00 4.132988354621125460e+00 3.424088636840314059e+00 4.009958403600426990e+00 5.010068005448031769e+00 4.173708338410142993e+00 5.589177774899359186e+00 5.082417976644874713e+00 4.866118062755765195e+00 4.705248126799496333e+00 3.519008599051845820e+00 4.886068054813499373e+00 4.922268040401967859e+00 4.472648219399557590e+00 4.376728257586134596e+00
5.968697623809181785e+00 4.638388153417038140e+00 4.157528344851540325e+00 4.642988151585738521e+00 5.198057930607595800e+00 5.127907958534914101e+00 4.762218104119249062e+00 3.493178609334990803e+00 4.694188131202577274e+00 4.457588225395072712e+00 4.603488167311027723e+00 3.412468641466336106e+00 4.907298046361653121e+00 4.456928225657824427e+00 4.373228258979515282e+00
