7.607500000000000373e-02 3.334309999999999774e-01 -1.210559999999999969e-01 -4.998139999999999805e-01 1.840160000000000129e-01 -5.376000000000000223e-02 1.661246000000000000e+00 1.279636999999999913e+00 1.377318999999999960e+00 -5.203000000000000159e-03 4.784840000000000204e-01 3.535690000000000222e-01 -1.232302999999999926e+00 -2.275568999999999953e+00 -1.556071999999999900e+00
1.613670000000000104e-01 -2.791150000000000020e-01 2.375379999999999991e-01 -4.386079999999999979e-01 1.208299999999999999e-02 -8.075300000000000533e-02 -3.543080000000000118e-01 -2.385815000000000019e+00 9.172599999999999643e-01 -8.628430000000000266e-01 2.835719999999999907e-01 -4.649679999999999924e-01 1.494391999999999943e+00 2.369276000000000160e+00 -6.090769999999999795e-01
