1.577361027367633950e+00 7.219745599453539775e-01 8.379100448482763586e-01 7.219745599453539775e-01 2.902466263928850099e-01 5.136411252101861225e-01 8.379100448482763586e-01 5.136411252101861225e-01 9.625665818900658310e-01
7.090754003383151760e-01 -8.138276466222123251e-02 3.493695919755006041e-01 -8.138276466222123251e-02 2.277046360201712805e+00 -9.675196172345627010e-01 3.493695919755006041e-01 -9.675196172345627010e-01 6.106750335337453039e-01
