 vasp.5.4.4.18Apr17-6-g9f103f2a35 (build Jul 12 2018 13:43:46) complex           
 executed on             LinuxGNU date 2019.06.24  12:57:22
 running on    1 total cores
 distrk:  each k-point on    1 cores,    1 groups
 distr:  one band on NCORES_PER_BAND=   1 cores,    1 groups


--------------------------------------------------------------------------------------------------------


 INCAR:
 POTCAR:    PAW_PBE H 15Jun2001                   
 POTCAR:    PAW_PBE C 08Apr2002                   
 POTCAR:    PAW_PBE H 15Jun2001                   
   VRHFIN =H: ultrasoft test                                                    
   LEXCH  = PE                                                                  
   EATOM  =    12.4884 eV,    0.9179 Ry                                         
                                                                                
   TITEL  = PAW_PBE H 15Jun2001                                                 
   LULTRA =        F    use ultrasoft PP ?                                      
   IUNSCR =        0    unscreen: 0-lin 1-nonlin 2-no                           
   RPACOR =    0.000    partial core radius                                     
   POMASS =    1.000; ZVAL   =    1.000    mass and valenz                      
   RCORE  =    1.100    outmost cutoff radius                                   
   RWIGS  =    0.700; RWIGS  =    0.370    wigner-seitz radius (au A)           
   ENMAX  =  250.000; ENMIN  =  200.000 eV                                      
   RCLOC  =    0.701    cutoff for local pot                                    
   LCOR   =        T    correct aug charges                                     
   LPAW   =        T    paw PP                                                  
   EAUG   =  400.000                                                            
   RMAX   =    1.123    core radius for proj-oper                               
   RAUG   =    1.200    factor for augmentation sphere                          
   RDEP   =    1.112    radius for radial grids                                 
   RDEPT  =    0.926    core radius for aug-charge                              
                                                                                
   Atomic configuration                                                         
    2 entries                                                                   
     n  l   j            E        occ.                                          
     1  0  0.50        -6.4927   1.0000                                         
     2  1  0.50        -3.4015   0.0000                                         
   Description                                                                  
     l       E           TYP  RCUT    TYP  RCUT                                 
     0     -6.4927494     23  1.100                                             
     0      6.8029130     23  1.100                                             
     1     -4.0817478     23  1.100                                             
  local pseudopotential read in
  atomic valenz-charges read in
  non local Contribution for L=           0  read in
    real space projection operators read in
  non local Contribution for L=           0  read in
    real space projection operators read in
  non local Contribution for L=           1  read in
    real space projection operators read in
    PAW grid and wavefunctions read in

   number of l-projection  operators is LMAX  =           3
   number of lm-projection operators is LMMAX =           5

 POTCAR:    PAW_PBE C 08Apr2002                   
   VRHFIN =C: s2p2                                                              
   LEXCH  = PE                                                                  
   EATOM  =   147.1560 eV,   10.8157 Ry                                         
                                                                                
   TITEL  = PAW_PBE C 08Apr2002                                                 
   LULTRA =        F    use ultrasoft PP ?                                      
   IUNSCR =        1    unscreen: 0-lin 1-nonlin 2-no                           
   RPACOR =    1.200    partial core radius                                     
   POMASS =   12.011; ZVAL   =    4.000    mass and valenz                      
   RCORE  =    1.500    outmost cutoff radius                                   
   RWIGS  =    1.630; RWIGS  =    0.863    wigner-seitz radius (au A)           
   ENMAX  =  400.000; ENMIN  =  300.000 eV                                      
   ICORE  =        2    local potential                                         
   LCOR   =        T    correct aug charges                                     
   LPAW   =        T    paw PP                                                  
   EAUG   =  644.873                                                            
   DEXC   =    0.000                                                            
   RMAX   =    1.529    core radius for proj-oper                               
   RAUG   =    1.300    factor for augmentation sphere                          
   RDEP   =    1.501    radius for radial grids                                 
   RDEPT  =    1.300    core radius for aug-charge                              
                                                                                
   Atomic configuration                                                         
    4 entries                                                                   
     n  l   j            E        occ.                                          
     1  0  0.50      -273.3789   2.0000                                         
     2  0  0.50       -13.7508   2.0000                                         
     2  1  0.50        -5.2854   2.0000                                         
     3  2  1.50        -5.4423   0.0000                                         
   Description                                                                  
     l       E           TYP  RCUT    TYP  RCUT                                 
     0    -13.7508458     23  1.200                                             
     0     -8.2022199     23  1.200                                             
     1     -5.2854383     23  1.500                                             
     1     34.0145650     23  1.500                                             
     2     -5.4423304      7  1.500                                             
  local pseudopotential read in
  partial core-charges read in
  partial kinetic energy density read in
  atomic valenz-charges read in
  non local Contribution for L=           0  read in
    real space projection operators read in
  non local Contribution for L=           0  read in
    real space projection operators read in
  non local Contribution for L=           1  read in
    real space projection operators read in
  non local Contribution for L=           1  read in
    real space projection operators read in
    PAW grid and wavefunctions read in

   number of l-projection  operators is LMAX  =           4
   number of lm-projection operators is LMMAX =           8


 ----------------------------------------------------------------------------- 
|                                                                             |
|  ADVICE TO THIS USER RUNNING 'VASP/VAMP'   (HEAR YOUR MASTER'S VOICE ...):  |
|                                                                             |
|      You have a (more or less) 'small supercell' and for smaller cells      |
|      it is recommended  to use the reciprocal-space projection scheme!      |
|      The real space optimization is not  efficient for small cells and it   |
|      is also less accurate ...                                              |
|      Therefore set LREAL=.FALSE. in the  INCAR file                         |
|                                                                             |
 ----------------------------------------------------------------------------- 

 Optimization of the real space projectors (new method)

 maximal supplied QI-value         = 34.20
 optimisation between [QCUT,QGAM] = [  9.92, 20.18] = [ 27.55,114.04] Ry 
 Optimized for a Real-space Cutoff    1.34 Angstroem

   l    n(q)    QCUT    max X(q) W(low)/X(q) W(high)/X(q)  e(spline) 
   0      8     9.919    19.460    0.16E-03    0.20E-03    0.36E-06
   0      8     9.919    12.209    0.16E-03    0.20E-03    0.35E-06
   1      8     9.919     4.655    0.19E-03    0.46E-03    0.40E-06
 Optimization of the real space projectors (new method)

 maximal supplied QI-value         = 25.13
 optimisation between [QCUT,QGAM] = [ 10.05, 20.36] = [ 28.30,116.06] Ry 
 Optimized for a Real-space Cutoff    1.51 Angstroem

   l    n(q)    QCUT    max X(q) W(low)/X(q) W(high)/X(q)  e(spline) 
   0      9    10.053   115.676    0.19E-03    0.21E-03    0.38E-06
   0      9    10.053    87.132    0.19E-03    0.21E-03    0.38E-06
   1      9    10.053     4.429    0.87E-04    0.11E-03    0.39E-06
   1      9    10.053     2.733    0.59E-04    0.62E-04    0.43E-06
  PAW_PBE H 15Jun2001                   :
 energy of atom  1       EATOM=  -12.4884
 kinetic energy error for atom=    0.0098 (will be added to EATOM!!)
  PAW_PBE C 08Apr2002                   :
 energy of atom  2       EATOM= -147.1560
 kinetic energy error for atom=    0.0288 (will be added to EATOM!!)


 POSCAR: POSCAR file written by OVITO            
  positions in cartesian coordinates
  No initial velocities read in
 exchange correlation table for  LEXCH =        8
   RHO(1)=    0.500       N(1)  =     2000
   RHO(2)=  100.500       N(2)  =     4000



--------------------------------------------------------------------------------------------------------


 ion  position               nearest neighbor table
   1  0.533  0.548  0.489-   5 1.06
   2  0.418  0.491  0.394-   5 1.09
   3  0.482  0.391  0.508-   5 1.09
   4  0.580  0.432  0.380-   5 1.13
   5  0.503  0.468  0.446-   1 1.06   2 1.09   3 1.09   4 1.13


IMPORTANT INFORMATION: All symmetrisations will be switched off!
NOSYMM: (Re-)initialisation of all symmetry stuff for point group C_1.




Automatic generation of k-mesh.
 generate k-points for:    1    1    1
Space group operators:
 irot       det(A)        alpha          n_x          n_y          n_z        tau_x        tau_y        tau_z
    1     1.000000     0.000000     1.000000     0.000000     0.000000     0.000000     0.000000     0.000000
 
 Subroutine IBZKPT returns following result:
 ===========================================
 
 Found      1 irreducible k-points:
 
 Following reciprocal coordinates:
            Coordinates               Weight
  0.000000  0.000000  0.000000      1.000000
 
 Following cartesian coordinates:
            Coordinates               Weight
  0.000000  0.000000  0.000000      1.000000
 


--------------------------------------------------------------------------------------------------------




 Dimension of arrays:
   k-points           NKPTS =      1   k-points in BZ     NKDIM =      1   number of bands    NBANDS=      8
   number of dos      NEDOS =    301   number of ions     NIONS =      5
   non local maximal  LDIM  =      4   non local SUM 2l+1 LMDIM =      8
   total plane-waves  NPLWV = 362880
   max r-space proj   IRMAX =   4273   max aug-charges    IRDMAX=   3665
   dimension x,y,z NGX =    70 NGY =   72 NGZ =   72
   dimension x,y,z NGXF=   140 NGYF=  144 NGZF=  144
   support grid    NGXF=   140 NGYF=  144 NGZF=  144
   ions per type =               4   1
   NGX,Y,Z   is equivalent  to a cutoff of  11.21, 10.97, 10.96 a.u.
   NGXF,Y,Z  is equivalent  to a cutoff of  22.43, 21.93, 21.93 a.u.

 SYSTEM =  unknown system                          
 POSCAR =  POSCAR file written by OVITO            

 Startparameter for this run:
   NWRITE =      2    write-flag & timer
   PREC   = a         normal or accurate (medium, high low for compatibility)
   ISTART =      0    job   : 0-new  1-cont  2-samecut
   ICHARG =      2    charge: 1-file 2-atom 10-const
   ISPIN  =      1    spin polarized calculation?
   LNONCOLLINEAR =      F non collinear calculations
   LSORBIT =      F    spin-orbit coupling
   INIWAV =      1    electr: 0-lowe 1-rand  2-diag
   LASPH  =      F    aspherical Exc in radial PAW
   METAGGA=      F    non-selfconsistent MetaGGA calc.

 Electronic Relaxation 1
   ENCUT  =  400.0 eV  29.40 Ry    5.42 a.u.  16.92 17.80 17.80*2*pi/ulx,y,z
   ENINI  =  400.0     initial cutoff
   ENAUG  =  644.9 eV  augmentation charge cutoff
   NELM   =    120;   NELMIN=  4; NELMDL= -5     # of ELM steps 
   EDIFF  = 0.1E-05   stopping-criterion for ELM
   LREAL  =      T    real-space projection
   NLSPLINE    = F    spline interpolate recip. space projectors
   LCOMPAT=      F    compatible to vasp.4.4
   GGA_COMPAT  = T    GGA compatible to vasp.4.4-vasp.4.6
   LMAXPAW     = -100 max onsite density
   LMAXMIX     =    2 max onsite mixed and CHGCAR
   VOSKOWN=      0    Vosko Wilk Nusair interpolation
   ROPT   =   -0.00025  -0.00025
 Ionic relaxation
   EDIFFG = 0.1E-04   stopping-criterion for IOM
   NSW    =      0    number of steps for IOM
   NBLOCK =      1;   KBLOCK =      1    inner block; outer block 
   IBRION =     -1    ionic relax: 0-MD 1-quasi-New 2-CG
   NFREE  =      0    steps in history (QN), initial steepest desc. (CG)
   ISIF   =      2    stress and relaxation
   IWAVPR =     10    prediction:  0-non 1-charg 2-wave 3-comb
   ISYM   =      0    0-nonsym 1-usesym 2-fastsym
   LCORR  =      T    Harris-Foulkes like correction to forces

   POTIM  = 0.5000    time-step for ionic-motion
   TEIN   =    0.0    initial temperature
   TEBEG  =    0.0;   TEEND  =   0.0 temperature during run
   SMASS  =  -3.00    Nose mass-parameter (am)
   estimated Nose-frequenzy (Omega)   =  0.10E-29 period in steps =****** mass=  -0.246E-26a.u.
   SCALEE = 1.0000    scale energy and forces
   NPACO  =    256;   APACO  = 16.0  distance and # of slots for P.C.
   PSTRESS=    0.0 pullay stress

  Mass of Ions in am
   POMASS =   1.00 12.01
  Ionic Valenz
   ZVAL   =   1.00  4.00
  Atomic Wigner-Seitz radii
   RWIGS  =  -1.00 -1.00
  virtual crystal weights 
   VCA    =   1.00  1.00
   NELECT =       8.0000    total number of electrons
   NUPDOWN=      -1.0000    fix difference up-down

 DOS related values:
   EMIN   =  10.00;   EMAX   =-10.00  energy-range for DOS
   EFERMI =   0.00
   ISMEAR =     0;   SIGMA  =   0.05  broadening in eV -4-tet -1-fermi 0-gaus

 Electronic relaxation 2 (details)
   IALGO  =     38    algorithm
   LDIAG  =      T    sub-space diagonalisation (order eigenvalues)
   LSUBROT=      F    optimize rotation matrix (better conditioning)
   TURBO    =      0    0=normal 1=particle mesh
   IRESTART =      0    0=no restart 2=restart with 2 vectors
   NREBOOT  =      0    no. of reboots
   NMIN     =      0    reboot dimension
   EREF     =   0.00    reference energy to select bands
   IMIX   =      4    mixing-type and parameters
     AMIX     =   0.40;   BMIX     =  1.00
     AMIX_MAG =   1.60;   BMIX_MAG =  1.00
     AMIN     =   0.10
     WC   =   100.;   INIMIX=   1;  MIXPRE=   1;  MAXMIX= -45

 Intra band minimization:
   WEIMIN = 0.0000     energy-eigenvalue tresh-hold
   EBREAK =  0.31E-07  absolut break condition
   DEPER  =   0.30     relativ break condition  

   TIME   =   0.40     timestep for ELM

  volume/ion in A,a.u.               =     247.10      1667.53
  Fermi-wavevector in a.u.,A,eV,Ry     =   0.305133  0.576617  1.266784  0.093106
  Thomas-Fermi vector in A             =   1.177872

 Write flags
   LWAVE        =      F    write WAVECAR
   LDOWNSAMPLE  =      F    k-point downsampling of WAVECAR
   LCHARG       =      F    write CHGCAR
   LVTOT        =      F    write LOCPOT, total local potential
   LVHAR        =      F    write LOCPOT, Hartree potential only
   LELF         =      F    write electronic localiz. function (ELF)
   LORBIT       =      0    0 simple, 1 ext, 2 COOP (PROOUT), +10 PAW based schemes


 Dipole corrections
   LMONO  =      F    monopole corrections only (constant potential shift)
   LDIPOL =      F    correct potential (dipole corrections)
   IDIPOL =      0    1-x, 2-y, 3-z, 4-all directions 
   EPSILON=  1.0000000 bulk dielectric constant

 Exchange correlation treatment:
   GGA     =    --    GGA type
   LEXCH   =     8    internal setting for exchange type
   VOSKOWN=      0    Vosko Wilk Nusair interpolation
   LHFCALC =     F    Hartree Fock is set to
   LHFONE  =     F    Hartree Fock one center treatment
   AEXX    =    0.0000 exact exchange contribution

 Linear response parameters
   LEPSILON=     F    determine dielectric tensor
   LRPA    =     F    only Hartree local field effects (RPA)
   LNABLA  =     F    use nabla operator in PAW spheres
   LVEL    =     F    velocity operator in full k-point grid
   LINTERFAST=   F  fast interpolation
   KINTER  =     0    interpolate to denser k-point grid
   CSHIFT  =0.1000    complex shift for real part using Kramers Kronig
   OMEGAMAX=  -1.0    maximum frequency
   DEG_THRESHOLD= 0.2000000E-02 threshold for treating states as degnerate
   RTIME   =   -0.100 relaxation time in fs
  (WPLASMAI=    0.000 imaginary part of plasma frequency in eV, 0.658/RTIME)
   DFIELD  = 0.0000000 0.0000000 0.0000000 field for delta impulse in time

 Orbital magnetization related:
   ORBITALMAG=     F  switch on orbital magnetization
   LCHIMAG   =     F  perturbation theory with respect to B field
   DQ        =  0.001000  dq finite difference perturbation B field
   LLRAUG    =     F  two centre corrections for induced B field



--------------------------------------------------------------------------------------------------------


 Static calculation
 charge density and potential will be updated during run
 non-spin polarized calculation
 Variant of blocked Davidson
 Davidson routine will perform the subspace rotation
 perform sub-space diagonalisation
    after iterative eigenvector-optimisation
 modified Broyden-mixing scheme, WC =      100.0
 initial mixing is a Kerker type mixing with AMIX =  0.4000 and BMIX =      1.0000
 Hartree-type preconditioning will be used
 using additional bands            4
 real space projection scheme for non local part
 use partial core corrections
 calculate Harris-corrections to forces   (improved forces if not selfconsistent)
 use gradient corrections 
 use of overlap-Matrix (Vanderbilt PP)
 Gauss-broadening in eV      SIGMA  =   0.05


--------------------------------------------------------------------------------------------------------


  energy-cutoff  :      400.00
  volume of cell :     1235.52
      direct lattice vectors                 reciprocal lattice vectors
    10.377329800  0.000000000  0.000000000     0.096363903 -0.002276210 -0.002335107
     0.257764400 10.912518600  0.000000000     0.000000000  0.091637874 -0.002328291
     0.270928700  0.277204300 10.910323200     0.000000000  0.000000000  0.091656313

  length of vectors
    10.377329800 10.915562500 10.917206461     0.096419063  0.091667447  0.091656313



 k-points in units of 2pi/SCALE and weight: read from INCAR                         
   0.00000000  0.00000000  0.00000000       1.000

 k-points in reciprocal lattice and weights: read from INCAR                         
   0.00000000  0.00000000  0.00000000       1.000

 position of ions in fractional coordinates (direct lattice) 
   0.53255407  0.54845089  0.48922909
   0.41789919  0.49116064  0.39399639
   0.48210090  0.39084820  0.50813969
   0.57971809  0.43246621  0.38008573
   0.50300083  0.46807603  0.44638075

 position of ions in cartesian coordinates  (Angst):
   5.80040650  6.12059690  5.33764750
   4.57002640  5.46901710  4.29862790
   5.24133640  4.40599680  5.54396820
   6.23037630  4.82465700  4.14685820
   5.46139620  5.23162700  4.87015820



--------------------------------------------------------------------------------------------------------


 k-point  1 :   0.0000 0.0000 0.0000  plane waves:   22435

 maximum and minimum number of plane-waves per node :     22435    22435

 maximum number of plane-waves:     22435
 maximum index in each direction: 
   IXMAX=   16   IYMAX=   17   IZMAX=   17
   IXMIN=  -16   IYMIN=  -17   IZMIN=  -17


 serial   3D FFT for wavefunctions
 parallel 3D FFT for charge:
    minimum data exchange during FFTs selected (reduces bandwidth)


 total amount of memory used by VASP MPI-rank0   312972. kBytes
=======================================================================

   base      :      30000. kBytes
   nonlr-proj:       1156. kBytes
   fftplans  :     100148. kBytes
   grid      :     178778. kBytes
   one-center:         15. kBytes
   wavefun   :       2875. kBytes

     INWAV:  cpu time    0.0000: real time    0.0000
 Broyden mixing: mesh for mixing (old mesh)
   NGX = 33   NGY = 35   NGZ = 35
  (NGX  =140   NGY  =144   NGZ  =144)
  gives a total of  40425 points

 initial charge density was supplied:
 charge density of overlapping atoms calculated
 number of electron       8.0000000 magnetization 
 keeping initial charge density in first step


--------------------------------------------------------------------------------------------------------


 Maximum index for non-local projection operator         4103
 Maximum index for augmentation-charges         3361 (set IRDMAX)


--------------------------------------------------------------------------------------------------------


 First call to EWALD:  gamma=   0.165
 Maximum number of real-space cells 3x 3x 3
 Maximum number of reciprocal cells 3x 3x 3

    FEWALD:  cpu time    0.0022: real time    0.0022


--------------------------------------- Iteration      1(   1)  ---------------------------------------


    POTLOK:  cpu time    2.2387: real time    2.2443
    SETDIJ:  cpu time    0.0072: real time    0.0073
     EDDAV:  cpu time    0.8682: real time    0.8702
       DOS:  cpu time    0.0002: real time    0.0002
    --------------------------------------------
      LOOP:  cpu time    3.1143: real time    3.1219

 eigenvalue-minimisations  :    24
 total energy-change (2. order) : 0.2124843E+02  (-0.1888001E+03)
 number of electron       8.0000000 magnetization 
 augmentation part        8.0000000 magnetization 

 Free energy of the ion-electron system (eV)
  ---------------------------------------------------
  alpha Z        PSCENC =         0.19607263
  Ewald energy   TEWEN  =       138.96551646
  -Hartree energ DENC   =      -253.08829066
  -exchange      EXHF   =         0.00000000
  -V(xc)+E(xc)   XCENC  =        22.04407772
  PAW double counting   =       117.05815612     -117.66307307
  entropy T*S    EENTRO =        -0.00000000
  eigenvalues    EBANDS =       -83.30578816
  atomic energy  EATOM  =       197.04175453
  Solvation  Ediel_sol  =         0.00000000
  ---------------------------------------------------
  free energy    TOTEN  =        21.24842557 eV

  energy without entropy =       21.24842557  energy(sigma->0) =       21.24842557


--------------------------------------------------------------------------------------------------------




--------------------------------------- Iteration      1(   2)  ---------------------------------------


     EDDAV:  cpu time    0.6376: real time    0.6392
       DOS:  cpu time    0.0001: real time    0.0001
    --------------------------------------------
      LOOP:  cpu time    0.6377: real time    0.6393

 eigenvalue-minimisations  :    16
 total energy-change (2. order) :-0.4268434E+02  (-0.4268434E+02)
 number of electron       8.0000000 magnetization 
 augmentation part        8.0000000 magnetization 

 Free energy of the ion-electron system (eV)
  ---------------------------------------------------
  alpha Z        PSCENC =         0.19607263
  Ewald energy   TEWEN  =       138.96551646
  -Hartree energ DENC   =      -253.08829066
  -exchange      EXHF   =         0.00000000
  -V(xc)+E(xc)   XCENC  =        22.04407772
  PAW double counting   =       117.05815612     -117.66307307
  entropy T*S    EENTRO =        -0.00000000
  eigenvalues    EBANDS =      -125.99012387
  atomic energy  EATOM  =       197.04175453
  Solvation  Ediel_sol  =         0.00000000
  ---------------------------------------------------
  free energy    TOTEN  =       -21.43591014 eV

  energy without entropy =      -21.43591014  energy(sigma->0) =      -21.43591014


--------------------------------------------------------------------------------------------------------




--------------------------------------- Iteration      1(   3)  ---------------------------------------


     EDDAV:  cpu time    0.6535: real time    0.6551
       DOS:  cpu time    0.0001: real time    0.0001
    --------------------------------------------
      LOOP:  cpu time    0.6537: real time    0.6552

 eigenvalue-minimisations  :    16
 total energy-change (2. order) :-0.5886693E+01  (-0.5886693E+01)
 number of electron       8.0000000 magnetization 
 augmentation part        8.0000000 magnetization 

 Free energy of the ion-electron system (eV)
  ---------------------------------------------------
  alpha Z        PSCENC =         0.19607263
  Ewald energy   TEWEN  =       138.96551646
  -Hartree energ DENC   =      -253.08829066
  -exchange      EXHF   =         0.00000000
  -V(xc)+E(xc)   XCENC  =        22.04407772
  PAW double counting   =       117.05815612     -117.66307307
  entropy T*S    EENTRO =        -0.00000000
  eigenvalues    EBANDS =      -131.87681691
  atomic energy  EATOM  =       197.04175453
  Solvation  Ediel_sol  =         0.00000000
  ---------------------------------------------------
  free energy    TOTEN  =       -27.32260318 eV

  energy without entropy =      -27.32260318  energy(sigma->0) =      -27.32260318


--------------------------------------------------------------------------------------------------------




--------------------------------------- Iteration      1(   4)  ---------------------------------------


     EDDAV:  cpu time    1.1855: real time    1.1883
       DOS:  cpu time    0.0001: real time    0.0001
    --------------------------------------------
      LOOP:  cpu time    1.1856: real time    1.1884

 eigenvalue-minimisations  :    32
 total energy-change (2. order) :-0.2590705E+00  (-0.2590705E+00)
 number of electron       8.0000000 magnetization 
 augmentation part        8.0000000 magnetization 

 Free energy of the ion-electron system (eV)
  ---------------------------------------------------
  alpha Z        PSCENC =         0.19607263
  Ewald energy   TEWEN  =       138.96551646
  -Hartree energ DENC   =      -253.08829066
  -exchange      EXHF   =         0.00000000
  -V(xc)+E(xc)   XCENC  =        22.04407772
  PAW double counting   =       117.05815612     -117.66307307
  entropy T*S    EENTRO =        -0.00000000
  eigenvalues    EBANDS =      -132.13588739
  atomic energy  EATOM  =       197.04175453
  Solvation  Ediel_sol  =         0.00000000
  ---------------------------------------------------
  free energy    TOTEN  =       -27.58167366 eV

  energy without entropy =      -27.58167366  energy(sigma->0) =      -27.58167366


--------------------------------------------------------------------------------------------------------




--------------------------------------- Iteration      1(   5)  ---------------------------------------


     EDDAV:  cpu time    1.1745: real time    1.1773
       DOS:  cpu time    0.0001: real time    0.0001
    CHARGE:  cpu time    0.1596: real time    0.1600
    MIXING:  cpu time    0.0461: real time    0.0462
    --------------------------------------------
      LOOP:  cpu time    1.3804: real time    1.3836

 eigenvalue-minimisations  :    32
 total energy-change (2. order) :-0.8258883E-04  (-0.8258883E-04)
 number of electron       7.9999998 magnetization 
 augmentation part        0.2277313 magnetization 

 Broyden mixing:
  rms(total) = 0.88456E+00    rms(broyden)= 0.88433E+00
  rms(prec ) = 0.12075E+01
  weight for this iteration     100.00

 Free energy of the ion-electron system (eV)
  ---------------------------------------------------
  alpha Z        PSCENC =         0.19607263
  Ewald energy   TEWEN  =       138.96551646
  -Hartree energ DENC   =      -253.08829066
  -exchange      EXHF   =         0.00000000
  -V(xc)+E(xc)   XCENC  =        22.04407772
  PAW double counting   =       117.05815612     -117.66307307
  entropy T*S    EENTRO =        -0.00000000
  eigenvalues    EBANDS =      -132.13596998
  atomic energy  EATOM  =       197.04175453
  Solvation  Ediel_sol  =         0.00000000
  ---------------------------------------------------
  free energy    TOTEN  =       -27.58175625 eV

  energy without entropy =      -27.58175625  energy(sigma->0) =      -27.58175625


--------------------------------------------------------------------------------------------------------




--------------------------------------- Iteration      1(   6)  ---------------------------------------


    POTLOK:  cpu time    2.3465: real time    2.3521
    SETDIJ:  cpu time    0.0070: real time    0.0070
     EDDAV:  cpu time    0.9970: real time    0.9994
       DOS:  cpu time    0.0002: real time    0.0002
    CHARGE:  cpu time    0.1744: real time    0.1748
    MIXING:  cpu time    0.0498: real time    0.0499
    --------------------------------------------
      LOOP:  cpu time    3.5749: real time    3.5834

 eigenvalue-minimisations  :    24
 total energy-change (2. order) : 0.2962647E+01  (-0.9007903E+00)
 number of electron       7.9999999 magnetization 
 augmentation part        0.1992804 magnetization 

 Broyden mixing:
  rms(total) = 0.45105E+00    rms(broyden)= 0.45092E+00
  rms(prec ) = 0.55193E+00
  weight for this iteration     100.00

 eigenvalues of (default mixing * dielectric matrix)
  average eigenvalue GAMMA=   1.2027
  1.2027

 Free energy of the ion-electron system (eV)
  ---------------------------------------------------
  alpha Z        PSCENC =         0.19607263
  Ewald energy   TEWEN  =       138.96551646
  -Hartree energ DENC   =      -273.08115250
  -exchange      EXHF   =         0.00000000
  -V(xc)+E(xc)   XCENC  =        23.25704501
  PAW double counting   =       240.74722400     -241.53086346
  entropy T*S    EENTRO =        -0.00000000
  eigenvalues    EBANDS =      -110.21470559
  atomic energy  EATOM  =       197.04175453
  Solvation  Ediel_sol  =         0.00000000
  ---------------------------------------------------
  free energy    TOTEN  =       -24.61910892 eV

  energy without entropy =      -24.61910892  energy(sigma->0) =      -24.61910892


--------------------------------------------------------------------------------------------------------




--------------------------------------- Iteration      1(   7)  ---------------------------------------


    POTLOK:  cpu time    2.3943: real time    2.4000
    SETDIJ:  cpu time    0.0073: real time    0.0074
     EDDAV:  cpu time    1.0464: real time    1.0489
       DOS:  cpu time    0.0001: real time    0.0001
    CHARGE:  cpu time    0.1509: real time    0.1512
    MIXING:  cpu time    0.0486: real time    0.0487
    --------------------------------------------
      LOOP:  cpu time    3.6476: real time    3.6563

 eigenvalue-minimisations  :    24
 total energy-change (2. order) : 0.4931822E+00  (-0.7667766E-01)
 number of electron       7.9999999 magnetization 
 augmentation part        0.1906683 magnetization 

 Broyden mixing:
  rms(total) = 0.22909E+00    rms(broyden)= 0.22904E+00
  rms(prec ) = 0.27519E+00
  weight for this iteration     100.00

 eigenvalues of (default mixing * dielectric matrix)
  average eigenvalue GAMMA=   1.6927
  1.2556  2.1298

 Free energy of the ion-electron system (eV)
  ---------------------------------------------------
  alpha Z        PSCENC =         0.19607263
  Ewald energy   TEWEN  =       138.96551646
  -Hartree energ DENC   =      -283.31871940
  -exchange      EXHF   =         0.00000000
  -V(xc)+E(xc)   XCENC  =        24.02500238
  PAW double counting   =       371.42091797     -372.23388599
  entropy T*S    EENTRO =        -0.00000000
  eigenvalues    EBANDS =      -100.22258528
  atomic energy  EATOM  =       197.04175453
  Solvation  Ediel_sol  =         0.00000000
  ---------------------------------------------------
  free energy    TOTEN  =       -24.12592670 eV

  energy without entropy =      -24.12592670  energy(sigma->0) =      -24.12592670


--------------------------------------------------------------------------------------------------------




--------------------------------------- Iteration      1(   8)  ---------------------------------------


    POTLOK:  cpu time    2.4574: real time    2.4632
    SETDIJ:  cpu time    0.0076: real time    0.0076
     EDDAV:  cpu time    1.4324: real time    1.4358
       DOS:  cpu time    0.0001: real time    0.0001
    CHARGE:  cpu time    0.1820: real time    0.1825
    MIXING:  cpu time    0.0532: real time    0.0533
    --------------------------------------------
      LOOP:  cpu time    4.1327: real time    4.1425

 eigenvalue-minimisations  :    32
 total energy-change (2. order) : 0.1642347E+00  (-0.1718496E-01)
 number of electron       7.9999999 magnetization 
 augmentation part        0.1880313 magnetization 

 Broyden mixing:
  rms(total) = 0.26834E-01    rms(broyden)= 0.26803E-01
  rms(prec ) = 0.53283E-01
  weight for this iteration     100.00

 eigenvalues of (default mixing * dielectric matrix)
  average eigenvalue GAMMA=   1.5752
  2.1700  1.1286  1.4269

 Free energy of the ion-electron system (eV)
  ---------------------------------------------------
  alpha Z        PSCENC =         0.19607263
  Ewald energy   TEWEN  =       138.96551646
  -Hartree energ DENC   =      -290.33376294
  -exchange      EXHF   =         0.00000000
  -V(xc)+E(xc)   XCENC  =        24.64776594
  PAW double counting   =       486.42069697     -487.22011540
  entropy T*S    EENTRO =        -0.00000000
  eigenvalues    EBANDS =       -93.67962016
  atomic energy  EATOM  =       197.04175453
  Solvation  Ediel_sol  =         0.00000000
  ---------------------------------------------------
  free energy    TOTEN  =       -23.96169197 eV

  energy without entropy =      -23.96169197  energy(sigma->0) =      -23.96169197


--------------------------------------------------------------------------------------------------------




--------------------------------------- Iteration      1(   9)  ---------------------------------------


    POTLOK:  cpu time    2.5419: real time    2.5479
    SETDIJ:  cpu time    0.0075: real time    0.0075
     EDDAV:  cpu time    0.7823: real time    0.7842
       DOS:  cpu time    0.0001: real time    0.0001
    CHARGE:  cpu time    0.1766: real time    0.1770
    MIXING:  cpu time    0.0585: real time    0.0586
    --------------------------------------------
      LOOP:  cpu time    3.5668: real time    3.5753

 eigenvalue-minimisations  :    16
 total energy-change (2. order) : 0.8393201E-02  (-0.3578403E-03)
 number of electron       7.9999999 magnetization 
 augmentation part        0.1875397 magnetization 

 Broyden mixing:
  rms(total) = 0.16255E-01    rms(broyden)= 0.16250E-01
  rms(prec ) = 0.34912E-01
  weight for this iteration     100.00

 eigenvalues of (default mixing * dielectric matrix)
  average eigenvalue GAMMA=   1.8991
  2.9601  2.4335  0.9888  1.2142

 Free energy of the ion-electron system (eV)
  ---------------------------------------------------
  alpha Z        PSCENC =         0.19607263
  Ewald energy   TEWEN  =       138.96551646
  -Hartree energ DENC   =      -291.79391011
  -exchange      EXHF   =         0.00000000
  -V(xc)+E(xc)   XCENC  =        24.73097812
  PAW double counting   =       486.12288211     -486.91931178
  entropy T*S    EENTRO =        -0.00000000
  eigenvalues    EBANDS =       -92.29728071
  atomic energy  EATOM  =       197.04175453
  Solvation  Ediel_sol  =         0.00000000
  ---------------------------------------------------
  free energy    TOTEN  =       -23.95329877 eV

  energy without entropy =      -23.95329877  energy(sigma->0) =      -23.95329877


--------------------------------------------------------------------------------------------------------




--------------------------------------- Iteration      1(  10)  ---------------------------------------


    POTLOK:  cpu time    2.3337: real time    2.3393
    SETDIJ:  cpu time    0.0070: real time    0.0070
     EDDAV:  cpu time    0.7109: real time    0.7126
       DOS:  cpu time    0.0001: real time    0.0001
    CHARGE:  cpu time    0.1566: real time    0.1570
    MIXING:  cpu time    0.0521: real time    0.0523
    --------------------------------------------
      LOOP:  cpu time    3.2605: real time    3.2682

 eigenvalue-minimisations  :    16
 total energy-change (2. order) : 0.1037163E-01  (-0.5949111E-03)
 number of electron       7.9999999 magnetization 
 augmentation part        0.1872987 magnetization 

 Broyden mixing:
  rms(total) = 0.67432E-02    rms(broyden)= 0.67416E-02
  rms(prec ) = 0.16180E-01
  weight for this iteration     100.00

 eigenvalues of (default mixing * dielectric matrix)
  average eigenvalue GAMMA=   2.1473
  3.5224  1.0000  1.2162  2.4990  2.4990

 Free energy of the ion-electron system (eV)
  ---------------------------------------------------
  alpha Z        PSCENC =         0.19607263
  Ewald energy   TEWEN  =       138.96551646
  -Hartree energ DENC   =      -293.44340893
  -exchange      EXHF   =         0.00000000
  -V(xc)+E(xc)   XCENC  =        24.80314620
  PAW double counting   =       476.49370474     -477.28622213
  entropy T*S    EENTRO =        -0.00000000
  eigenvalues    EBANDS =       -90.71349064
  atomic energy  EATOM  =       197.04175453
  Solvation  Ediel_sol  =         0.00000000
  ---------------------------------------------------
  free energy    TOTEN  =       -23.94292714 eV

  energy without entropy =      -23.94292714  energy(sigma->0) =      -23.94292714


--------------------------------------------------------------------------------------------------------




--------------------------------------- Iteration      1(  11)  ---------------------------------------


    POTLOK:  cpu time    2.1332: real time    2.1382
    SETDIJ:  cpu time    0.0073: real time    0.0073
     EDDAV:  cpu time    0.7338: real time    0.7355
       DOS:  cpu time    0.0001: real time    0.0001
    CHARGE:  cpu time    0.1742: real time    0.1746
    MIXING:  cpu time    0.0537: real time    0.0538
    --------------------------------------------
      LOOP:  cpu time    3.1022: real time    3.1096

 eigenvalue-minimisations  :    16
 total energy-change (2. order) :-0.8956176E-02  (-0.4764590E-03)
 number of electron       7.9999999 magnetization 
 augmentation part        0.1868233 magnetization 

 Broyden mixing:
  rms(total) = 0.69375E-02    rms(broyden)= 0.69366E-02
  rms(prec ) = 0.10882E-01
  weight for this iteration     100.00

 eigenvalues of (default mixing * dielectric matrix)
  average eigenvalue GAMMA=   2.1511
  4.6180  2.8777  2.2866  1.2340  0.9452  0.9452

 Free energy of the ion-electron system (eV)
  ---------------------------------------------------
  alpha Z        PSCENC =         0.19607263
  Ewald energy   TEWEN  =       138.96551646
  -Hartree energ DENC   =      -294.55979865
  -exchange      EXHF   =         0.00000000
  -V(xc)+E(xc)   XCENC  =        24.84471563
  PAW double counting   =       479.94360358     -480.73805518
  entropy T*S    EENTRO =        -0.00000000
  eigenvalues    EBANDS =       -89.64569232
  atomic energy  EATOM  =       197.04175453
  Solvation  Ediel_sol  =         0.00000000
  ---------------------------------------------------
  free energy    TOTEN  =       -23.95188332 eV

  energy without entropy =      -23.95188332  energy(sigma->0) =      -23.95188332


--------------------------------------------------------------------------------------------------------




--------------------------------------- Iteration      1(  12)  ---------------------------------------


    POTLOK:  cpu time    2.0541: real time    2.0591
    SETDIJ:  cpu time    0.0068: real time    0.0069
     EDDAV:  cpu time    0.9354: real time    0.9376
       DOS:  cpu time    0.0001: real time    0.0001
    CHARGE:  cpu time    0.1503: real time    0.1506
    MIXING:  cpu time    0.0539: real time    0.0540
    --------------------------------------------
      LOOP:  cpu time    3.2006: real time    3.2083

 eigenvalue-minimisations  :    24
 total energy-change (2. order) :-0.2181730E-02  (-0.7002693E-04)
 number of electron       7.9999999 magnetization 
 augmentation part        0.1869937 magnetization 

 Broyden mixing:
  rms(total) = 0.24653E-02    rms(broyden)= 0.24652E-02
  rms(prec ) = 0.54303E-02
  weight for this iteration     100.00

 eigenvalues of (default mixing * dielectric matrix)
  average eigenvalue GAMMA=   2.2652
  4.9568  2.7980  2.7980  2.0242  1.2382  1.0207  1.0207

 Free energy of the ion-electron system (eV)
  ---------------------------------------------------
  alpha Z        PSCENC =         0.19607263
  Ewald energy   TEWEN  =       138.96551646
  -Hartree energ DENC   =      -294.22387838
  -exchange      EXHF   =         0.00000000
  -V(xc)+E(xc)   XCENC  =        24.81565104
  PAW double counting   =       476.18645720     -476.98011045
  entropy T*S    EENTRO =        -0.00000000
  eigenvalues    EBANDS =       -89.95552807
  atomic energy  EATOM  =       197.04175453
  Solvation  Ediel_sol  =         0.00000000
  ---------------------------------------------------
  free energy    TOTEN  =       -23.95406504 eV

  energy without entropy =      -23.95406504  energy(sigma->0) =      -23.95406504


--------------------------------------------------------------------------------------------------------




--------------------------------------- Iteration      1(  13)  ---------------------------------------


    POTLOK:  cpu time    1.9298: real time    1.9344
    SETDIJ:  cpu time    0.0068: real time    0.0068
     EDDAV:  cpu time    0.7096: real time    0.7112
       DOS:  cpu time    0.0001: real time    0.0001
    CHARGE:  cpu time    0.1612: real time    0.1616
    MIXING:  cpu time    0.0562: real time    0.0564
    --------------------------------------------
      LOOP:  cpu time    2.8638: real time    2.8705

 eigenvalue-minimisations  :    16
 total energy-change (2. order) :-0.4566327E-02  (-0.1284967E-03)
 number of electron       7.9999999 magnetization 
 augmentation part        0.1870756 magnetization 

 Broyden mixing:
  rms(total) = 0.33067E-02    rms(broyden)= 0.33061E-02
  rms(prec ) = 0.44080E-02
  weight for this iteration     100.00

 eigenvalues of (default mixing * dielectric matrix)
  average eigenvalue GAMMA=   2.4205
  6.2380  3.9208  2.5619  2.3058  1.2817  0.9756  1.0403  1.0403

 Free energy of the ion-electron system (eV)
  ---------------------------------------------------
  alpha Z        PSCENC =         0.19607263
  Ewald energy   TEWEN  =       138.96551646
  -Hartree energ DENC   =      -294.20970026
  -exchange      EXHF   =         0.00000000
  -V(xc)+E(xc)   XCENC  =        24.80963688
  PAW double counting   =       477.47920338     -478.27124909
  entropy T*S    EENTRO =        -0.00000000
  eigenvalues    EBANDS =       -89.96986590
  atomic energy  EATOM  =       197.04175453
  Solvation  Ediel_sol  =         0.00000000
  ---------------------------------------------------
  free energy    TOTEN  =       -23.95863137 eV

  energy without entropy =      -23.95863137  energy(sigma->0) =      -23.95863137


--------------------------------------------------------------------------------------------------------




--------------------------------------- Iteration      1(  14)  ---------------------------------------


    POTLOK:  cpu time    1.9523: real time    1.9569
    SETDIJ:  cpu time    0.0068: real time    0.0068
     EDDAV:  cpu time    0.9328: real time    0.9350
       DOS:  cpu time    0.0001: real time    0.0001
    CHARGE:  cpu time    0.1426: real time    0.1430
    MIXING:  cpu time    0.0547: real time    0.0548
    --------------------------------------------
      LOOP:  cpu time    3.0893: real time    3.0966

 eigenvalue-minimisations  :    24
 total energy-change (2. order) :-0.7043508E-03  (-0.1917554E-04)
 number of electron       7.9999999 magnetization 
 augmentation part        0.1870013 magnetization 

 Broyden mixing:
  rms(total) = 0.85011E-03    rms(broyden)= 0.84966E-03
  rms(prec ) = 0.16482E-02
  weight for this iteration     100.00

 eigenvalues of (default mixing * dielectric matrix)
  average eigenvalue GAMMA=   2.5764
  7.1609  4.2334  3.0312  2.3907  1.9461  1.3246  1.0526  1.0526  0.9954

 Free energy of the ion-electron system (eV)
  ---------------------------------------------------
  alpha Z        PSCENC =         0.19607263
  Ewald energy   TEWEN  =       138.96551646
  -Hartree energ DENC   =      -294.20906763
  -exchange      EXHF   =         0.00000000
  -V(xc)+E(xc)   XCENC  =        24.80525192
  PAW double counting   =       476.54784460     -477.34080075
  entropy T*S    EENTRO =        -0.00000000
  eigenvalues    EBANDS =       -89.96590749
  atomic energy  EATOM  =       197.04175453
  Solvation  Ediel_sol  =         0.00000000
  ---------------------------------------------------
  free energy    TOTEN  =       -23.95933572 eV

  energy without entropy =      -23.95933572  energy(sigma->0) =      -23.95933572


--------------------------------------------------------------------------------------------------------




--------------------------------------- Iteration      1(  15)  ---------------------------------------


    POTLOK:  cpu time    1.9527: real time    1.9574
    SETDIJ:  cpu time    0.0063: real time    0.0064
     EDDAV:  cpu time    0.6519: real time    0.6541
       DOS:  cpu time    0.0001: real time    0.0001
    CHARGE:  cpu time    0.1275: real time    0.1278
    MIXING:  cpu time    0.0504: real time    0.0505
    --------------------------------------------
      LOOP:  cpu time    2.7891: real time    2.7963

 eigenvalue-minimisations  :    16
 total energy-change (2. order) :-0.5330610E-03  (-0.4003436E-05)
 number of electron       7.9999999 magnetization 
 augmentation part        0.1870146 magnetization 

 Broyden mixing:
  rms(total) = 0.71261E-03    rms(broyden)= 0.71258E-03
  rms(prec ) = 0.98655E-03
  weight for this iteration     100.00

 eigenvalues of (default mixing * dielectric matrix)
  average eigenvalue GAMMA=   2.5767
  7.7648  4.7183  2.9219  2.6369  2.2670  1.2639  1.1132  1.0078  1.0364  1.0364

 Free energy of the ion-electron system (eV)
  ---------------------------------------------------
  alpha Z        PSCENC =         0.19607263
  Ewald energy   TEWEN  =       138.96551646
  -Hartree energ DENC   =      -294.22143646
  -exchange      EXHF   =         0.00000000
  -V(xc)+E(xc)   XCENC  =        24.80545008
  PAW double counting   =       476.13049018     -476.92338168
  entropy T*S    EENTRO =        -0.00000000
  eigenvalues    EBANDS =       -89.95433453
  atomic energy  EATOM  =       197.04175453
  Solvation  Ediel_sol  =         0.00000000
  ---------------------------------------------------
  free energy    TOTEN  =       -23.95986878 eV

  energy without entropy =      -23.95986878  energy(sigma->0) =      -23.95986878


--------------------------------------------------------------------------------------------------------




--------------------------------------- Iteration      1(  16)  ---------------------------------------


    POTLOK:  cpu time    1.9289: real time    1.9334
    SETDIJ:  cpu time    0.0069: real time    0.0069
     EDDAV:  cpu time    0.5887: real time    0.5901
       DOS:  cpu time    0.0001: real time    0.0001
    CHARGE:  cpu time    0.1249: real time    0.1252
    MIXING:  cpu time    0.0485: real time    0.0486
    --------------------------------------------
      LOOP:  cpu time    2.6978: real time    2.7042

 eigenvalue-minimisations  :    16
 total energy-change (2. order) :-0.8131475E-04  (-0.6991953E-06)
 number of electron       7.9999999 magnetization 
 augmentation part        0.1869966 magnetization 

 Broyden mixing:
  rms(total) = 0.19237E-03    rms(broyden)= 0.19231E-03
  rms(prec ) = 0.35276E-03
  weight for this iteration     100.00

 eigenvalues of (default mixing * dielectric matrix)
  average eigenvalue GAMMA=   2.7055
  8.4743  4.9332  3.8939  2.6624  2.4277  2.0015  1.3023  1.0842  0.9946  0.9946
  0.9914

 Free energy of the ion-electron system (eV)
  ---------------------------------------------------
  alpha Z        PSCENC =         0.19607263
  Ewald energy   TEWEN  =       138.96551646
  -Hartree energ DENC   =      -294.24419098
  -exchange      EXHF   =         0.00000000
  -V(xc)+E(xc)   XCENC  =        24.80674036
  PAW double counting   =       476.45314066     -477.24624247
  entropy T*S    EENTRO =        -0.00000000
  eigenvalues    EBANDS =       -89.93274128
  atomic energy  EATOM  =       197.04175453
  Solvation  Ediel_sol  =         0.00000000
  ---------------------------------------------------
  free energy    TOTEN  =       -23.95995010 eV

  energy without entropy =      -23.95995010  energy(sigma->0) =      -23.95995010


--------------------------------------------------------------------------------------------------------




--------------------------------------- Iteration      1(  17)  ---------------------------------------


    POTLOK:  cpu time    1.9629: real time    1.9681
    SETDIJ:  cpu time    0.0062: real time    0.0062
     EDDAV:  cpu time    0.5666: real time    0.5679
       DOS:  cpu time    0.0001: real time    0.0001
    CHARGE:  cpu time    0.1309: real time    0.1312
    MIXING:  cpu time    0.0616: real time    0.0617
    --------------------------------------------
      LOOP:  cpu time    2.7282: real time    2.7352

 eigenvalue-minimisations  :    16
 total energy-change (2. order) :-0.6974374E-04  (-0.4113452E-06)
 number of electron       7.9999999 magnetization 
 augmentation part        0.1869871 magnetization 

 Broyden mixing:
  rms(total) = 0.19739E-03    rms(broyden)= 0.19733E-03
  rms(prec ) = 0.29253E-03
  weight for this iteration     100.00

 eigenvalues of (default mixing * dielectric matrix)
  average eigenvalue GAMMA=   2.6625
  9.1827  5.3609  3.8853  2.6576  2.3733  2.0829  1.2988  1.1885  1.0076  1.0076
  0.9824  0.9229

 Free energy of the ion-electron system (eV)
  ---------------------------------------------------
  alpha Z        PSCENC =         0.19607263
  Ewald energy   TEWEN  =       138.96551646
  -Hartree energ DENC   =      -294.25957251
  -exchange      EXHF   =         0.00000000
  -V(xc)+E(xc)   XCENC  =        24.80738114
  PAW double counting   =       476.56721340     -477.36030649
  entropy T*S    EENTRO =        -0.00000000
  eigenvalues    EBANDS =       -89.91807899
  atomic energy  EATOM  =       197.04175453
  Solvation  Ediel_sol  =         0.00000000
  ---------------------------------------------------
  free energy    TOTEN  =       -23.96001984 eV

  energy without entropy =      -23.96001984  energy(sigma->0) =      -23.96001984


--------------------------------------------------------------------------------------------------------




--------------------------------------- Iteration      1(  18)  ---------------------------------------


    POTLOK:  cpu time    1.9682: real time    1.9732
    SETDIJ:  cpu time    0.0062: real time    0.0062
     EDDAV:  cpu time    0.8029: real time    0.8125
       DOS:  cpu time    0.0001: real time    0.0001
    CHARGE:  cpu time    0.1250: real time    0.1255
    MIXING:  cpu time    0.0558: real time    0.0559
    --------------------------------------------
      LOOP:  cpu time    2.9582: real time    2.9734

 eigenvalue-minimisations  :    24
 total energy-change (2. order) :-0.5330611E-05  (-0.7940720E-07)
 number of electron       7.9999999 magnetization 
 augmentation part        0.1869953 magnetization 

 Broyden mixing:
  rms(total) = 0.52334E-04    rms(broyden)= 0.52318E-04
  rms(prec ) = 0.10155E-03
  weight for this iteration     100.00

 eigenvalues of (default mixing * dielectric matrix)
  average eigenvalue GAMMA=   2.7105
  9.3869  5.6890  4.0330  2.8345  2.6459  2.2875  1.7618  1.3283  1.2391  0.9906
  0.9906  1.0247  1.0247

 Free energy of the ion-electron system (eV)
  ---------------------------------------------------
  alpha Z        PSCENC =         0.19607263
  Ewald energy   TEWEN  =       138.96551646
  -Hartree energ DENC   =      -294.25189047
  -exchange      EXHF   =         0.00000000
  -V(xc)+E(xc)   XCENC  =        24.80694821
  PAW double counting   =       476.54290815     -477.33594048
  entropy T*S    EENTRO =        -0.00000000
  eigenvalues    EBANDS =       -89.92539420
  atomic energy  EATOM  =       197.04175453
  Solvation  Ediel_sol  =         0.00000000
  ---------------------------------------------------
  free energy    TOTEN  =       -23.96002517 eV

  energy without entropy =      -23.96002517  energy(sigma->0) =      -23.96002517


--------------------------------------------------------------------------------------------------------




--------------------------------------- Iteration      1(  19)  ---------------------------------------


    POTLOK:  cpu time    2.0132: real time    2.0225
    SETDIJ:  cpu time    0.0062: real time    0.0062
     EDDAV:  cpu time    0.5449: real time    0.5461
       DOS:  cpu time    0.0001: real time    0.0001
    CHARGE:  cpu time    0.1402: real time    0.1405
    MIXING:  cpu time    0.0598: real time    0.0599
    --------------------------------------------
      LOOP:  cpu time    2.7643: real time    2.7754

 eigenvalue-minimisations  :    16
 total energy-change (2. order) :-0.8406016E-05  (-0.4117775E-07)
 number of electron       7.9999999 magnetization 
 augmentation part        0.1869972 magnetization 

 Broyden mixing:
  rms(total) = 0.33065E-04    rms(broyden)= 0.33046E-04
  rms(prec ) = 0.51005E-04
  weight for this iteration     100.00

 eigenvalues of (default mixing * dielectric matrix)
  average eigenvalue GAMMA=   2.6609
  9.5377  5.7671  4.2310  3.2541  2.5702  2.3418  1.9362  1.2872  1.2872  0.9821
  0.9946  0.9946  1.0347  1.0347

 Free energy of the ion-electron system (eV)
  ---------------------------------------------------
  alpha Z        PSCENC =         0.19607263
  Ewald energy   TEWEN  =       138.96551646
  -Hartree energ DENC   =      -294.24967768
  -exchange      EXHF   =         0.00000000
  -V(xc)+E(xc)   XCENC  =        24.80680286
  PAW double counting   =       476.55143105     -477.34443178
  entropy T*S    EENTRO =        -0.00000000
  eigenvalues    EBANDS =       -89.92750164
  atomic energy  EATOM  =       197.04175453
  Solvation  Ediel_sol  =         0.00000000
  ---------------------------------------------------
  free energy    TOTEN  =       -23.96003358 eV

  energy without entropy =      -23.96003358  energy(sigma->0) =      -23.96003358


--------------------------------------------------------------------------------------------------------




--------------------------------------- Iteration      1(  20)  ---------------------------------------


    POTLOK:  cpu time    1.8792: real time    1.8848
    SETDIJ:  cpu time    0.0062: real time    0.0062
     EDDAV:  cpu time    0.7241: real time    0.7258
       DOS:  cpu time    0.0001: real time    0.0001
    CHARGE:  cpu time    0.1067: real time    0.1069
    MIXING:  cpu time    0.0545: real time    0.0546
    --------------------------------------------
      LOOP:  cpu time    2.7708: real time    2.7785

 eigenvalue-minimisations  :    24
 total energy-change (2. order) :-0.1147611E-05  (-0.2006868E-08)
 number of electron       7.9999999 magnetization 
 augmentation part        0.1869972 magnetization 

 Broyden mixing:
  rms(total) = 0.16391E-04    rms(broyden)= 0.16389E-04
  rms(prec ) = 0.31744E-04
  weight for this iteration     100.00

 eigenvalues of (default mixing * dielectric matrix)
  average eigenvalue GAMMA=   2.7009
  9.5917  5.8761  4.5769  3.3175  2.9756  2.3554  2.3554  1.8122  1.3833  1.2798
  1.0241  1.0241  0.9893  0.9760  0.9760

 Free energy of the ion-electron system (eV)
  ---------------------------------------------------
  alpha Z        PSCENC =         0.19607263
  Ewald energy   TEWEN  =       138.96551646
  -Hartree energ DENC   =      -294.24989962
  -exchange      EXHF   =         0.00000000
  -V(xc)+E(xc)   XCENC  =        24.80679830
  PAW double counting   =       476.53960352     -477.33261183
  entropy T*S    EENTRO =        -0.00000000
  eigenvalues    EBANDS =       -89.92726871
  atomic energy  EATOM  =       197.04175453
  Solvation  Ediel_sol  =         0.00000000
  ---------------------------------------------------
  free energy    TOTEN  =       -23.96003473 eV

  energy without entropy =      -23.96003473  energy(sigma->0) =      -23.96003473


--------------------------------------------------------------------------------------------------------




--------------------------------------- Iteration      1(  21)  ---------------------------------------


    POTLOK:  cpu time    1.7608: real time    1.7650
    SETDIJ:  cpu time    0.0065: real time    0.0065
     EDDAV:  cpu time    0.7195: real time    0.7212
       DOS:  cpu time    0.0001: real time    0.0001
    CHARGE:  cpu time    0.1013: real time    0.1015
    MIXING:  cpu time    0.0577: real time    0.0578
    --------------------------------------------
      LOOP:  cpu time    2.6459: real time    2.6522

 eigenvalue-minimisations  :    24
 total energy-change (2. order) :-0.1955043E-05  (-0.3966996E-08)
 number of electron       7.9999999 magnetization 
 augmentation part        0.1869965 magnetization 

 Broyden mixing:
  rms(total) = 0.11357E-04    rms(broyden)= 0.11356E-04
  rms(prec ) = 0.17711E-04
  weight for this iteration     100.00

 eigenvalues of (default mixing * dielectric matrix)
  average eigenvalue GAMMA=   2.6641
  9.6079  6.0284  4.7452  3.8673  2.6455  2.6455  2.2911  1.6174  1.6174  1.3305
  1.2186  1.0211  1.0211  1.0136  0.9770  0.9770

 Free energy of the ion-electron system (eV)
  ---------------------------------------------------
  alpha Z        PSCENC =         0.19607263
  Ewald energy   TEWEN  =       138.96551646
  -Hartree energ DENC   =      -294.25041413
  -exchange      EXHF   =         0.00000000
  -V(xc)+E(xc)   XCENC  =        24.80683496
  PAW double counting   =       476.52572415     -477.31874446
  entropy T*S    EENTRO =        -0.00000000
  eigenvalues    EBANDS =       -89.92678083
  atomic energy  EATOM  =       197.04175453
  Solvation  Ediel_sol  =         0.00000000
  ---------------------------------------------------
  free energy    TOTEN  =       -23.96003668 eV

  energy without entropy =      -23.96003668  energy(sigma->0) =      -23.96003668


--------------------------------------------------------------------------------------------------------




--------------------------------------- Iteration      1(  22)  ---------------------------------------


    POTLOK:  cpu time    1.7638: real time    1.7679
    SETDIJ:  cpu time    0.0063: real time    0.0063
     EDDAV:  cpu time    0.7051: real time    0.7067
       DOS:  cpu time    0.0001: real time    0.0001
    --------------------------------------------
      LOOP:  cpu time    2.4752: real time    2.4811

 eigenvalue-minimisations  :    24
 total energy-change (2. order) :-0.5395234E-06  (-0.7305019E-09)
 number of electron       7.9999999 magnetization 
 augmentation part        0.1869965 magnetization 

 Free energy of the ion-electron system (eV)
  ---------------------------------------------------
  alpha Z        PSCENC =         0.19607263
  Ewald energy   TEWEN  =       138.96551646
  -Hartree energ DENC   =      -294.24992315
  -exchange      EXHF   =         0.00000000
  -V(xc)+E(xc)   XCENC  =        24.80680814
  PAW double counting   =       476.52969703     -477.32271404
  entropy T*S    EENTRO =        -0.00000000
  eigenvalues    EBANDS =       -89.92724882
  atomic energy  EATOM  =       197.04175453
  Solvation  Ediel_sol  =         0.00000000
  ---------------------------------------------------
  free energy    TOTEN  =       -23.96003722 eV

  energy without entropy =      -23.96003722  energy(sigma->0) =      -23.96003722


--------------------------------------------------------------------------------------------------------




 average (electrostatic) potential at core
  the test charge radii are     0.5201  0.6991
  (the norm of the test charge is              1.0000)
       1 -41.8807       2 -41.5762       3 -41.5966       4 -41.2350       5 -57.9579



 E-fermi :  -8.7547     XC(G=0):  -0.5709     alpha+bet : -0.1705


 k-point     1 :       0.0000    0.0000    0.0000
  band No.  band energies     occupation 
      1     -16.9633      2.00000
      2      -9.7205      2.00000
      3      -9.2574      2.00000
      4      -9.0226      2.00000
      5      -0.4926      0.00000
      6       0.8004      0.00000
      7       0.8674      0.00000
      8       0.8854      0.00000


--------------------------------------------------------------------------------------------------------


 soft charge-density along one line, spin component           1
         0         1         2         3         4         5         6         7         8         9
 total charge-density along one line

 pseudopotential strength for first ion, spin component:           1
 -2.345  -4.041   0.002   0.001   0.001
 -4.041  -6.879   0.005   0.003   0.002
  0.002   0.005  -0.332   0.002   0.002
  0.001   0.003   0.002  -0.335   0.001
  0.001   0.002   0.002   0.001  -0.336
 total augmentation occupancy for first ion, spin component:           1
  3.671  -0.654  -0.402  -0.209  -0.152
 -0.654   0.131   0.072   0.039   0.028
 -0.402   0.072   0.047   0.019   0.014
 -0.209   0.039   0.019   0.020   0.007
 -0.152   0.028   0.014   0.007   0.016


------------------------ aborting loop because EDIFF is reached ----------------------------------------


    CHARGE:  cpu time    0.0988: real time    0.0990
    FORLOC:  cpu time    0.1216: real time    0.1219
    FORNL :  cpu time    0.1634: real time    0.1638
    STRESS:  cpu time    0.6366: real time    0.6381
    FORCOR:  cpu time    1.8602: real time    1.8646
    FORHAR:  cpu time    0.5970: real time    0.5984
    MIXING:  cpu time    0.0579: real time    0.0580
    OFIELD:  cpu time    0.0000: real time    0.0000

  FORCE on cell =-STRESS in cart. coord.  units (eV):
  Direction    XX          YY          ZZ          XY          YZ          ZX
  --------------------------------------------------------------------------------------
  Alpha Z     0.19607     0.19607     0.19607
  Ewald      46.88605    52.32238    39.75706     0.69650     1.17010     2.06163
  Hartree   101.43359    97.80600    95.01086    -0.14103     0.52020     0.12343
  E(xc)     -27.29322   -27.24835   -27.30132    -0.00714     0.00339    -0.00250
  Local    -207.80423  -206.93437  -194.32342    -0.11365    -1.49401    -1.41776
  n-local   -16.03682   -16.06879   -16.03148    -0.04266     0.00737    -0.08750
  augment     0.11984     0.09765     0.12010    -0.00495    -0.00194    -0.00757
  Kinetic   102.26397    99.91873   102.58572     0.29293    -0.20217     0.12053
  Fock        0.00000     0.00000     0.00000     0.00000     0.00000     0.00000
  -------------------------------------------------------------------------------------
  Total      -0.23475     0.08934     0.01359     0.68000     0.00293     0.79026
  in kB      -0.30441     0.11585     0.01763     0.88180     0.00381     1.02478
  external pressure =       -0.06 kB  Pullay stress =        0.00 kB


 VOLUME and BASIS-vectors are now :
 -----------------------------------------------------------------------------
  energy-cutoff  :      400.00
  volume of cell :     1235.52
      direct lattice vectors                 reciprocal lattice vectors
    10.377329800  0.000000000  0.000000000     0.096363903 -0.002276210 -0.002335107
     0.257764400 10.912518600  0.000000000     0.000000000  0.091637874 -0.002328291
     0.270928700  0.277204300 10.910323200     0.000000000  0.000000000  0.091656313

  length of vectors
    10.377329800 10.915562500 10.917206461     0.096419063  0.091667447  0.091656313


 FORCES acting on ions
    electron-ion (+dipol)            ewald-force                    non-local-force                 convergence-correction
 -----------------------------------------------------------------------------------------------
   -.175E+02 -.457E+02 -.243E+02   0.199E+02 0.517E+02 0.277E+02   -.192E+01 -.515E+01 -.263E+01   0.106E-04 0.452E-04 0.194E-04
   0.441E+02 -.119E+02 0.281E+02   -.491E+02 0.132E+02 -.313E+02   0.464E+01 -.125E+01 0.299E+01   -.317E-04 0.110E-04 -.272E-04
   0.107E+02 0.403E+02 -.334E+02   -.119E+02 -.446E+02 0.373E+02   0.113E+01 0.433E+01 -.341E+01   -.911E-05 -.417E-04 0.276E-04
   -.352E+02 0.184E+02 0.328E+02   0.381E+02 -.197E+02 -.355E+02   -.337E+01 0.185E+01 0.319E+01   0.245E-04 -.206E-04 -.338E-04
   -.268E+01 0.522E-01 -.210E+01   0.304E+01 -.610E+00 0.178E+01   0.992E-01 -.944E+00 -.125E+01   -.481E-05 0.522E-05 -.112E-04
 -----------------------------------------------------------------------------------------------
   -.582E+00 0.116E+01 0.112E+01   0.142E-13 0.142E-13 -.107E-13   0.582E+00 -.116E+01 -.112E+01   -.106E-04 -.828E-06 -.252E-04


 POSITION                                       TOTAL-FORCE (eV/Angst)
 -----------------------------------------------------------------------------------
      5.80041      6.12060      5.33765         0.553501      0.843767      0.765108
      4.57003      5.46902      4.29863        -0.395439      0.028616     -0.233922
      5.24134      4.40600      5.54397        -0.095529      0.055092      0.475474
      6.23038      4.82466      4.14686        -0.523501      0.573450      0.567319
      5.46140      5.23163      4.87016         0.460967     -1.500925     -1.573980
 -----------------------------------------------------------------------------------
    total drift:                                0.000141     -0.000407     -0.000264


--------------------------------------------------------------------------------------------------------



  FREE ENERGIE OF THE ION-ELECTRON SYSTEM (eV)
  ---------------------------------------------------
  free  energy   TOTEN  =       -23.96003722 eV

  energy  without entropy=      -23.96003722  energy(sigma->0) =      -23.96003722



--------------------------------------------------------------------------------------------------------


    POTLOK:  cpu time    1.7036: real time    1.7076


--------------------------------------------------------------------------------------------------------


     LOOP+:  cpu time   64.4898: real time   64.6627
    4ORBIT:  cpu time    0.0000: real time    0.0000

 total amount of memory used by VASP MPI-rank0   312972. kBytes
=======================================================================

   base      :      30000. kBytes
   nonlr-proj:       1156. kBytes
   fftplans  :     100148. kBytes
   grid      :     178778. kBytes
   one-center:         15. kBytes
   wavefun   :       2875. kBytes

  
  
 General timing and accounting informations for this job:
 ========================================================
  
                  Total CPU time used (sec):       66.623
                            User time (sec):       64.813
                          System time (sec):        1.810
                         Elapsed time (sec):       66.806
  
                   Maximum memory used (kb):      450668.
                   Average memory used (kb):           0.
  
                          Minor page faults:       295817
                          Major page faults:            0
                 Voluntary context switches:          135
