    10.269575        0.000000        0.000000        -0.255660        9.882868        0.000000        0.112990        -0.148019        9.809641    
