    5.38668000        4.15865000        3.37777000        3.94550000        4.52167000        4.45751000        5.56216000        5.55594000        4.28157000        5.43681000        4.03455000        5.27834000        5.09537000        4.56481000        4.36651000    
