    -0.039435        -0.873040        0.408623        1.400511        0.672157        -0.366370        -0.513188        0.544370        0.642031        0.496968        -0.128312        -0.518320        -1.343563        -0.216947        -0.164656    
