    1.6915387789       0.8154033313        -0.6630752364     0.8154033313        -0.9328851300        -0.7616404743        -0.6630752364        -0.7616404743      0.9657402092 
