5.118910000000000338e+01 6.690819999999999368e+01 1.104080000000000013e+02 5.025909999999999656e+01 6.549230000000000018e+01 1.103580000000000041e+02 5.063552700000000328e+01 6.624497900000000072e+01 1.110726760000000013e+02 5.021240000000000236e+01 6.707259999999999422e+01 1.061380000000000052e+02 5.070490000000000208e+01 6.688739999999999952e+01 1.070720000000000027e+02 4.572930000000000206e+01 6.689860000000000184e+01 1.063259999999999934e+02 4.566729999999999734e+01 6.797129999999999939e+01 1.062030000000000030e+02
