8.781119999999999948e+01 4.017340000000000089e+01 2.032570000000000121e+01 8.750790000000000646e+01 3.833650000000000091e+01 1.964440000000000097e+01 8.814109999999999445e+01 3.980180000000000007e+01 1.875459999999999994e+01 8.638540000000000418e+01 3.983550000000000324e+01 1.955120000000000147e+01 8.738290000000000646e+01 3.952929999999999922e+01 1.958119999999999905e+01 9.128780000000000427e+01 4.059890000000000043e+01 2.358139999999999858e+01 9.099689999999999657e+01 4.051180000000000092e+01 2.250969999999999871e+01
1.120000000000000000e+02 1.433000000000000007e+01 1.254270000000000067e+02 1.114020000000000010e+02 1.445640000000000036e+01 1.241219999999999999e+02 1.101029999999999944e+02 1.445819999999999972e+01 1.253190000000000026e+02 1.106179999999999950e+02 1.315579999999999927e+01 1.242570000000000050e+02 1.111460000000000008e+02 1.393099999999999916e+01 1.249749999999999943e+02 1.125379999999999967e+02 1.189419999999999966e+01 1.232930000000000064e+02 1.120049999999999955e+02 1.177069999999999972e+01 1.242609999999999957e+02
2.030409999999999826e+01 1.106740000000000066e+02 5.193500000000000227e+01 2.081609999999999872e+01 1.101550000000000011e+02 5.012400000000000233e+01 2.154690000000000083e+01 1.088469999999999942e+02 5.147440000000000282e+01 2.225740000000000052e+01 1.106430000000000007e+02 5.115999999999999659e+01 2.113990000000000080e+01 1.099789999999999992e+02 5.113909999999999911e+01 1.984570000000000078e+01 1.130000000000000000e+02 4.965120000000000289e+01 1.906899999999999906e+01 1.129260000000000019e+02 5.041980000000000217e+01
-1.157999999999999918e+00 2.310589999999999833e+01 3.846529999999999916e+01 -4.339999999999999969e-01 2.384730000000000061e+01 3.970210000000000150e+01 -9.699999999999999734e-01 2.511469999999999914e+01 3.916310000000000002e+01 1.299780000000000102e-01 2.427499999999999858e+01 3.815500000000000114e+01 -8.619999999999999885e-01 2.407689999999999841e+01 3.887460000000000093e+01 3.570009999999999906e+00 2.407049999999999912e+01 3.935280000000000200e+01 2.661189999999999944e+00 2.465879999999999939e+01 3.944409999999999883e+01
4.893599999999999994e+01 1.461069999999999958e+01 1.342040000000000077e+02 4.774439999999999884e+01 1.337470000000000070e+01 1.344720000000000084e+02 4.961730000000000018e+01 1.319400000000000084e+01 1.335459999999999923e+02 4.831239999999999668e+01 1.343929999999999936e+01 1.326490000000000009e+02 4.863689999999999714e+01 1.354420000000000002e+01 1.337680000000000007e+02 5.047390000000000043e+01 1.599029999999999951e+01 1.299809999999999945e+02 5.089079999999999870e+01 1.667869999999999919e+01 1.292189999999999941e+02
2.391929999999999978e+01 3.856419999999999959e+01 1.254609999999999985e+02 2.563410000000000011e+01 3.806049999999999756e+01 1.244680000000000035e+02 2.459380000000000166e+01 3.966259999999999764e+01 1.241970000000000027e+02 2.405069999999999908e+01 3.778170000000000073e+01 1.238310000000000031e+02 2.457539999999999836e+01 3.862639999999999674e+01 1.244150000000000063e+02 2.444079999999999941e+01 3.548490000000000322e+01 1.225849999999999937e+02 2.344539999999999935e+01 3.501310000000000144e+01 1.225499999999999972e+02
