-4.082387121398008730e+03
-4.080271663550149242e+03
-4.081270683200757958e+03
-4.081026672604939449e+03
-4.081774003803831420e+03
-4.082123473405980803e+03
