4.331147046155496838e-01 -5.929693030716522983e-01 1.505034492056719353e+00 -3.445764459451490236e-01 2.840326950522988447e+00 6.540964116089875713e-01 -2.031404812968812923e+00 -2.315376804270455890e-01 2.628196266893912947e-01 -1.716155400546762078e+00 3.206853934411756923e-01 -1.106016834787507008e+00 3.662746352348349888e+00 -2.337112038017552074e+00 -1.313747383524700441e+00 -3.305654237978070120e-01 -1.005679371358123575e-01 -1.219499732702403305e+00 3.268410262946316869e-01 1.011746661099655054e-01 1.217313420659512424e+00
1.620097950059635750e+00 -1.616854554575633873e+00 2.253569124670071311e+00 -5.401697926738378841e-02 2.391927704836977586e+00 -2.702021952150392092e+00 2.815292528348678935e+00 -6.258779864386114777e-01 -2.071224313672185569e-01 1.891464952804941868e+00 3.105748379560479000e-01 2.948759121548292672e+00 -7.375315134497972380e+00 1.184268314547538559e+00 -1.850249240125451999e+00 -1.103055283655342833e-01 -1.265797899687118311e-01 3.693877477686787758e-01 1.212782159495566114e+00 -1.517458526357607029e+00 -8.123223189219125340e-01
2.772738762051387251e+00 -2.762792397227711749e+00 -2.286117647876426684e+00 -3.488421121305801953e-01 -7.149928407516242812e-01 -3.103851933711952449e-01 -1.933166295489678221e+00 3.133823182896394055e+00 -9.466833989852768694e-01 -3.297362635285782773e+00 -1.733847368550261780e+00 1.896295181869195601e-01 2.818617273543428503e+00 2.048235718452421583e+00 3.368560550050086366e+00 1.166388141777075393e+00 1.264412074968631339e-01 -1.175318303703283940e+00 -1.178373185887917396e+00 -9.686745089401349595e-02 1.160314424277109069e+00
-2.028797097082953638e+00 1.108953497639012520e+00 -2.423803833089012427e-01 3.385309231647800843e+00 -2.408205925939351566e+00 5.852784849625174424e+00 -2.679947641290357563e+00 3.842432745301844199e-01 -1.073070253356817716e+00 -2.058338303517090573e+00 -6.139104772527786968e-01 1.632362267418941970e+00 3.346256742502904835e+00 1.516458007190720103e+00 -6.185007709501879170e+00 2.649716402132755722e+00 -1.726293672526259870e+00 -2.726996056239551769e-01 -2.614199385815127119e+00 1.738755296358472258e+00 2.880108347474361064e-01
-8.864536055254034208e-01 -1.335987222019941578e+00 -1.924449020922821552e+00 1.987520912052111566e+00 -1.465343237989632730e+00 -8.586903170742602454e-01 8.472946727008318080e-01 -2.037664524086840956e+00 1.703702672732222645e+00 -3.740681329283064294e-01 1.381410853903086489e+00 1.905449235477196135e+00 -1.574701828982590479e+00 3.458973451612404215e+00 -8.257987058337030728e-01 1.646051747378354246e-01 2.659483509629209097e-01 -2.985161574445795996e-01 -1.641971920544782748e-01 -2.673376209599287456e-01 2.983022930659455230e-01
2.236387674952476701e+00 1.084820504307562952e-02 -2.187119626460666044e+00 -2.022836559553502500e+00 1.962462012973683168e+00 5.979023248487911335e-01 3.921534283259327236e-02 7.112654093464677585e-01 -1.223380864667246604e+00 1.939090683305693119e-01 2.308334243597168545e+00 -1.102750865015883069e-01 -4.447840172320873253e-01 -4.943981516646332786e+00 2.946869052036132697e+00 4.849904175711517440e-01 1.912891654147179932e-01 3.391799570738460103e-04 -4.868819783232684606e-01 -2.402175711508469647e-01 -2.433503063456397136e-02
