LAMMPS (16 Mar 2018)
clear
variable        GPa2bar	equal 1e4
variable        B0		equal 70.000000
variable        bp		equal 0.000000
variable	    xx		equal 1.000000
variable        yeta	equal 1.5*(${bp}-1)
variable        yeta	equal 1.5*(0-1)
variable        Px0		equal 3*${B0}*(1-${xx})/${xx}^2*exp(${yeta}*(1-${xx}))
variable        Px0		equal 3*70*(1-${xx})/${xx}^2*exp(${yeta}*(1-${xx}))
variable        Px0		equal 3*70*(1-1)/${xx}^2*exp(${yeta}*(1-${xx}))
variable        Px0		equal 3*70*(1-1)/1^2*exp(${yeta}*(1-${xx}))
variable        Px0		equal 3*70*(1-1)/1^2*exp(-1.5*(1-${xx}))
variable        Px0		equal 3*70*(1-1)/1^2*exp(-1.5*(1-1))
variable        Px		equal ${Px0}*${GPa2bar}
variable        Px		equal 0*${GPa2bar}
variable        Px		equal 0*10000
units       metal
dimension   3
boundary	p p p
atom_style	atomic
box         tilt large
read_data   conf.lmp
  triclinic box = (0 0 0) to (7.71008 6.67713 6.29526) with tilt (3.85504 3.85504 2.22571)
  1 by 1 by 1 MPI processor grid
  reading atoms ...
  28 atoms
mass            1 1
neigh_modify    every 1 delay 0 check no
pair_style deepmd frozen_model.pb
pair_coeff
compute         mype all pe
thermo          100
thermo_style    custom step pe pxx pyy pzz pxy pxz pyz lx ly lz vol c_mype
dump            1 all custom 100 dump.relax id type xs ys zs fx fy fz
min_style       cg
fix             1 all box/relax iso ${Px}
fix             1 all box/relax iso 0
minimize        1.000000e-12 1.000000e-06 5000 500000
WARNING: Using 'neigh_modify every 1 delay 0 check yes' setting during minimization (../min.cpp:168)
Neighbor list info ...
  update every 1 steps, delay 0 steps, check yes
  max neighbors/atom: 2000, page size: 100000
  master list distance cutoff = 10
  ghost atom cutoff = 10
  binsize = 5, bins = 4 2 2
  1 neighbor lists, perpetual/occasional/extra = 1 0 0
  (1) pair deepmd, perpetual
      attributes: , newton on
      pair build: full/bin/atomonly
      stencil: full/bin/3d
      bin: standard
Per MPI rank memory allocation (min/avg/max) = 5.143 | 5.143 | 5.143 Mbytes
Step PotEng Pxx Pyy Pzz Pxy Pxz Pyz Lx Ly Lz Volume c_mype 
       0   -87.572671    98387.995    84976.898    78212.283  -0.11133566 -0.078726203    9566.6098    7.7100816    6.6771266    6.2952553    324.08724   -87.572671 
     100    -88.05496    60070.919    48197.674    42080.734 -0.014912262 -0.010544561    8650.6587    7.7871824    6.7438978    6.3582078    333.90741    -88.05496 
     200   -88.407029     27045.57    17620.879    12504.657   0.16488765   0.11659317    7235.4307    7.8642833    6.8106691    6.4211604    343.92397   -88.407029 
     300   -91.756015   -21329.884    7087.3757    17770.697   0.46315253   0.32749829   -15108.497     7.936758    6.8734341    6.4803358    353.52035   -91.756015 
     400   -97.557031   -21606.708    5845.6356    15000.672   0.36403029   0.25740828   -12947.177    7.9598883    6.8934655    6.4992216    356.62018   -97.557031 
     500   -99.632861   -14112.755    4626.8488    10235.152    0.2410118   0.17042108   -7931.3378    7.9290479    6.8667569    6.4740405    352.49108   -99.632861 
     600   -99.663548   -12548.703    4064.6805    8656.9116   0.21041495   0.14878584   -6494.3955    7.9290479    6.8667569    6.4740405    352.49108   -99.663548 
     700   -99.683997   -9776.0564    3359.3943    6510.8809   0.28649792   0.20258462   -4456.8751    7.9301365    6.8676997    6.4749294    352.63628   -99.683997 
     800   -99.732539   -27801.721    9631.5224    17416.349    2.6236922    1.8552305   -11009.408    7.9311406    6.8685693    6.4757492    352.77025   -99.732539 
     900   -99.743872   -29293.532    10262.565    18392.732    3.3048937    2.3369127   -11497.792    7.9311406    6.8685693    6.4757492    352.77025   -99.743872 
    1000    -99.75507   -30956.444     10936.55    19398.776    4.3389409    3.0680945   -11967.395    7.9311406    6.8685693    6.4757492    352.77025    -99.75507 
    1100   -99.766004     -32432.4    11513.428    20257.742    5.6144915     3.970045   -12366.328    7.9311406    6.8685693    6.4757492    352.77025   -99.766004 
    1200   -99.777005   -33768.153    12018.858     21014.81    7.2590412    5.1329172   -12722.198    7.9311406    6.8685693    6.4757492    352.77025   -99.777005 
    1300   -99.789192   -35088.168    12499.115    21743.904    9.6662269    6.8350546   -13074.106    7.9311406    6.8685693    6.4757492    352.77025   -99.789192 
    1400   -99.807658   -36795.856    13082.046    22658.628    15.027606    10.626122   -13543.332    7.9311406    6.8685693    6.4757492    352.77025   -99.807658 
    1500   -99.835754   -38083.993    14434.063    24455.764    28.654173     20.26156   -14172.826    7.9295986    6.8672338    6.4744902    352.56453   -99.835754 
    1600   -99.847152   -38664.606    14569.238    24746.764    37.202474    26.306122   -14393.195    7.9295986    6.8672338    6.4744902    352.56453   -99.847152 
    1700   -99.857746   -39104.629    14647.768    24959.713    46.708707    33.028043   -14583.292    7.9295986    6.8672338    6.4744902    352.56453   -99.857746 
    1800   -99.868846   -39474.477    14687.847    25129.571    58.143399    41.113591   -14766.828    7.9295986    6.8672338    6.4744902    352.56453   -99.868846 
    1900   -99.884316   -39857.332    14688.157    25289.145    76.084445    53.799827    -14992.06    7.9295986    6.8672338    6.4744902    352.56453   -99.884316 
    2000    -99.91523   -40275.165    14574.202    25405.405    115.01542    81.328182   -15317.634    7.9295986    6.8672338    6.4744902    352.56453    -99.91523 
    2100   -99.927922   -40347.883    14502.915    25393.853    131.61165    93.063488   -15402.112    7.9295986    6.8672338    6.4744902    352.56453   -99.927922 
    2200   -99.939538   -40376.176     14428.54    25357.092    146.57879    103.64685   -15455.306    7.9295986    6.8672338    6.4744902    352.56453   -99.939538 
    2300   -99.951549   -40371.832    14341.685    25293.564    161.57841    114.25319   -15488.296    7.9295986    6.8672338    6.4744902    352.56453   -99.951549 
    2400   -99.966608   -40322.582    14217.867    25177.858    179.32008    126.79844   -15499.767    7.9295986    6.8672338    6.4744902    352.56453   -99.966608 
    2500   -99.998226   -39401.673      14674.1    25593.323    210.98114    149.18619   -15442.113    7.9280566    6.8658984    6.4732311    352.35889   -99.998226 
    2600   -100.01091   -39228.648      14523.7    25386.196    220.22287    155.72109   -15361.889    7.9280566    6.8658984    6.4732311    352.35889   -100.01091 
    2700   -100.02175   -39034.105    14381.107    25176.608     225.7692    159.64293   -15267.144    7.9280566    6.8658984    6.4732311    352.35889   -100.02175 
    2800   -100.03267   -38775.419    14220.748    24927.427    228.13884    161.31852   -15141.531    7.9280566    6.8658984    6.4732311    352.35889   -100.03267 
    2900    -100.0451   -38363.187    14010.349    24581.303    224.56592    158.79209   -14949.586    7.9280566    6.8658984    6.4732311    352.35889    -100.0451 
    3000   -100.06148   -37454.111     13656.56     23957.24    199.27005    140.90521   -14567.361    7.9280566    6.8658984    6.4732311    352.35889   -100.06148 
    3100   -100.08137   -33109.934    11889.352     21163.05    9.7960499    6.9268533   -13114.989    7.9291881    6.8668783     6.474155    352.50977   -100.08137 
    3178    -100.0814   -33177.404    11941.592    21234.563  -0.29503697  -0.20866915   -13141.591    7.9291453    6.8668412      6.47412    352.50406    -100.0814 
Loop time of 228.43 on 1 procs for 3178 steps with 28 atoms

286.9% CPU use with 1 MPI tasks x no OpenMP threads

Minimization stats:
  Stopping criterion = energy tolerance
  Energy initial, next-to-last, final = 
        -87.5726714776     -100.081401631     -100.081401631
  Force two-norm initial, final = 55.3132 0.000377239
  Force max component initial, final = 52.9117 0.000267313
  Final line search alpha, max atom move = 0.375135 0.000100278
  Iterations, force evaluations = 3178 3311

MPI task timing breakdown:
Section |  min time  |  avg time  |  max time  |%varavg| %total
---------------------------------------------------------------
Pair    | 228.19     | 228.19     | 228.19     |   0.0 | 99.90
Neigh   | 0.000664   | 0.000664   | 0.000664   |   0.0 |  0.00
Comm    | 0.042332   | 0.042332   | 0.042332   |   0.0 |  0.02
Output  | 0.014928   | 0.014928   | 0.014928   |   0.0 |  0.01
Modify  | 0          | 0          | 0          |   0.0 |  0.00
Other   |            | 0.18       |            |       |  0.08

Nlocal:    28 ave 28 max 28 min
Histogram: 1 0 0 0 0 0 0 0 0 0
Nghost:    1764 ave 1764 max 1764 min
Histogram: 1 0 0 0 0 0 0 0 0 0
Neighs:    0 ave 0 max 0 min
Histogram: 1 0 0 0 0 0 0 0 0 0

Total # of neighbors = 0
Ave neighs/atom = 0
Neighbor list builds = 2
Dangerous builds not checked
fix             1 all box/relax aniso ${Px}
fix             1 all box/relax aniso 0
minimize        1.000000e-12 1.000000e-06 5000 500000
WARNING: Using 'neigh_modify every 1 delay 0 check yes' setting during minimization (../min.cpp:168)
Per MPI rank memory allocation (min/avg/max) = 5.143 | 5.143 | 5.143 Mbytes
Step PotEng Pxx Pyy Pzz Pxy Pxz Pyz Lx Ly Lz Volume c_mype 
    3178    -100.0814   -33177.404    11941.592    21234.563  -0.29503697  -0.20866915   -13141.591    7.9291453    6.8668412      6.47412    352.50406    -100.0814 
    3200   -100.10432   -31552.541    11347.657    19606.327   -1244.2558   -981.67474    -12603.32    7.9117011    6.8722645     6.483089    352.49399   -100.10432 
    3300     -100.181   -23160.691    9184.9213    13350.367   -6707.1069   -5179.1608   -10155.385    7.8324097    6.8976349    6.5211537      352.306     -100.181 
    3382   -100.21112    -15888.83    7373.2141    9008.2115   -10837.992   -8229.1504   -8182.0467     7.770327    6.9200853    6.5493554    352.16752   -100.21112 
Loop time of 16.197 on 1 procs for 204 steps with 28 atoms

284.9% CPU use with 1 MPI tasks x no OpenMP threads

Minimization stats:
  Stopping criterion = linesearch alpha is zero
  Energy initial, next-to-last, final = 
        -100.081401631     -100.211118506     -100.211118506
  Force two-norm initial, final = 9.05612 4.40669
  Force max component initial, final = 7.29955 3.56384
  Final line search alpha, max atom move = 4.28156e-10 1.52588e-09
  Iterations, force evaluations = 204 233

MPI task timing breakdown:
Section |  min time  |  avg time  |  max time  |%varavg| %total
---------------------------------------------------------------
Pair    | 16.18      | 16.18      | 16.18      |   0.0 | 99.90
Neigh   | 0          | 0          | 0          |   0.0 |  0.00
Comm    | 0.0030394  | 0.0030394  | 0.0030394  |   0.0 |  0.02
Output  | 0.00043869 | 0.00043869 | 0.00043869 |   0.0 |  0.00
Modify  | 0          | 0          | 0          |   0.0 |  0.00
Other   |            | 0.01335    |            |       |  0.08

Nlocal:    28 ave 28 max 28 min
Histogram: 1 0 0 0 0 0 0 0 0 0
Nghost:    1800 ave 1800 max 1800 min
Histogram: 1 0 0 0 0 0 0 0 0 0
Neighs:    0 ave 0 max 0 min
Histogram: 1 0 0 0 0 0 0 0 0 0

Total # of neighbors = 0
Ave neighs/atom = 0
Neighbor list builds = 0
Dangerous builds not checked
variable        N equal count(all)
variable        V equal vol
variable        E equal "c_mype"
variable        Pxx equal pxx
variable        Pyy equal pyy
variable        Pzz equal pzz
variable        Pxy equal pxy
variable        Pxz equal pxz
variable        Pyz equal pyz
variable        Epa equal ${E}/${N}
variable        Epa equal -100.211118506116/${N}
variable        Epa equal -100.211118506116/28
variable        Vpa equal ${V}/${N}
variable        Vpa equal 352.16751744469/${N}
variable        Vpa equal 352.16751744469/28
print "All done"
All done
print "Total number of atoms  = ${N}"
Total number of atoms  = 28
print "Relax at Press         = ${Px} Bar"
Relax at Press         = 0 Bar
print "Final energy per atoms = ${Epa} eV"
Final energy per atoms = -3.57896851807557 eV
print "Final volume per atoms = ${Vpa} A^3"
Final volume per atoms = 12.5774113373104 A^3
print "Final Stress (xx yy zz xy xz yz) = ${Pxx} ${Pyy} ${Pzz} ${Pxy} ${Pxz} ${Pyz}"
Final Stress (xx yy zz xy xz yz) = -15888.8300999227 7373.21412648177 9008.2114832005 -10837.9918039017 -8229.15041785115 -8182.04670493809
Total wall time: 0:04:05
