LAMMPS (16 Mar 2018)
clear
units 	metal
dimension	3
boundary	p	p    p
atom_style	atomic
box         tilt large
read_data   conf.lmp
  triclinic box = (0 0 0) to (2.57003 2.22571 23.0826) with tilt (1.28501 -14.1352 -8.16094)
WARNING: Triclinic box skew is large (../domain.cpp:197)
  1 by 1 by 1 MPI processor grid
  reading atoms ...
  5 atoms
mass            1 1
neigh_modify    every 1 delay 0 check no
pair_style deepmd frozen_model.pb
pair_coeff
compute         mype all pe
thermo          100
thermo_style    custom step pe pxx pyy pzz pxy pxz pyz lx ly lz vol c_mype
dump            1 all custom 100 dump.relax id type xs ys zs fx fy fz
min_style       cg
minimize        1.000000e-12 1.000000e-06 5000 500000
WARNING: Using 'neigh_modify every 1 delay 0 check yes' setting during minimization (../min.cpp:168)
Neighbor list info ...
  update every 1 steps, delay 0 steps, check yes
  max neighbors/atom: 2000, page size: 100000
  master list distance cutoff = 10
  ghost atom cutoff = 10
  binsize = 5, bins = 4 3 5
  1 neighbor lists, perpetual/occasional/extra = 1 0 0
  (1) pair deepmd, perpetual
      attributes: , newton on
      pair build: full/bin/atomonly
      stencil: full/bin/3d
      bin: standard
Per MPI rank memory allocation (min/avg/max) = 5.183 | 5.183 | 5.183 Mbytes
Step PotEng Pxx Pyy Pzz Pxy Pxz Pyz Lx Ly Lz Volume c_mype 
       0   -17.704595   -15682.836   -15682.721   -4933.6512  0.031184389 -0.083295987 -0.0039135674    2.5700275    2.2257085      23.0826    132.03552   -17.704595 
       6   -17.705953   -13725.363   -13725.248  0.092210177  0.013242366  -0.05000058 -0.0022967665    2.5700275    2.2257085      23.0826    132.03552   -17.705953 
Loop time of 0.20958 on 1 procs for 6 steps with 5 atoms

252.9% CPU use with 1 MPI tasks x no OpenMP threads

Minimization stats:
  Stopping criterion = energy tolerance
  Energy initial, next-to-last, final = 
        -17.7045952137     -17.7059531104     -17.7059531104
  Force two-norm initial, final = 0.0929959 1.52742e-06
  Force max component initial, final = 0.0608739 9.76181e-07
  Final line search alpha, max atom move = 1 9.76181e-07
  Iterations, force evaluations = 6 12

MPI task timing breakdown:
Section |  min time  |  avg time  |  max time  |%varavg| %total
---------------------------------------------------------------
Pair    | 0.20904    | 0.20904    | 0.20904    |   0.0 | 99.74
Neigh   | 0          | 0          | 0          |   0.0 |  0.00
Comm    | 0.00020146 | 0.00020146 | 0.00020146 |   0.0 |  0.10
Output  | 0          | 0          | 0          |   0.0 |  0.00
Modify  | 0          | 0          | 0          |   0.0 |  0.00
Other   |            | 0.0003345  |            |       |  0.16

Nlocal:    5 ave 5 max 5 min
Histogram: 1 0 0 0 0 0 0 0 0 0
Nghost:    995 ave 995 max 995 min
Histogram: 1 0 0 0 0 0 0 0 0 0
Neighs:    0 ave 0 max 0 min
Histogram: 1 0 0 0 0 0 0 0 0 0

Total # of neighbors = 0
Ave neighs/atom = 0
Neighbor list builds = 0
Dangerous builds not checked
variable        N equal count(all)
variable        V equal vol
variable        E equal "c_mype"
variable        tmplx equal lx
variable        tmply equal ly
variable        Pxx equal pxx
variable        Pyy equal pyy
variable        Pzz equal pzz
variable        Pxy equal pxy
variable        Pxz equal pxz
variable        Pyz equal pyz
variable        Epa equal ${E}/${N}
variable        Epa equal -17.7059531103757/${N}
variable        Epa equal -17.7059531103757/5
variable        Vpa equal ${V}/${N}
variable        Vpa equal 132.035521975022/${N}
variable        Vpa equal 132.035521975022/5
variable        AA equal (${tmplx}*${tmply})
variable        AA equal (2.5700275354*${tmply})
variable        AA equal (2.5700275354*2.2257085081)
print "All done"
All done
print "Total number of atoms = ${N}"
Total number of atoms = 5
print "Final energy per atoms = ${Epa}"
Final energy per atoms = -3.54119062207514
print "Final volume per atoms = ${Vpa}"
Final volume per atoms = 26.4071043950044
print "Final Base area = ${AA}"
Final Base area = 5.72013215159105
print "Final Stress (xx yy zz xy xz yz) = ${Pxx} ${Pyy} ${Pzz} ${Pxy} ${Pxz} ${Pyz}"
Final Stress (xx yy zz xy xz yz) = -13725.363398488 -13725.2480706997 0.0922101773330179 0.0132423659768575 -0.0500005799554773 -0.00229676651185607
Total wall time: 0:00:01
