7.556359999999999388e+01 1.233520000000000039e+02 1.304439999999999955e+01 7.641110000000000468e+01 1.237950000000000017e+02 1.251859999999999928e+01 7.783780000000000143e+01 1.196280000000000001e+02 1.473910000000000053e+01 7.709929999999999950e+01 1.189879999999999995e+02 1.532150000000000034e+01
6.520409999999999684e+01 8.178579999999999472e+01 6.099569999999999936e+01 6.477570000000000050e+01 8.258240000000000691e+01 6.033979999999999677e+01 6.310960000000000036e+01 8.301439999999999486e+01 6.527570000000000050e+01 6.211569999999999681e+01 8.342659999999999343e+01 6.509610000000000696e+01
8.223569999999999425e+01 1.014110000000000014e+02 1.094579999999999984e+02 8.287439999999999429e+01 1.008880000000000052e+02 1.087159999999999940e+02 8.094079999999999586e+01 1.028169999999999931e+02 1.055789999999999935e+02 7.990160000000000196e+01 1.025889999999999986e+02 1.059530000000000030e+02
2.235020000000000095e+01 8.815380000000000393e+01 8.251489999999999725e+01 2.222759999999999891e+01 8.715540000000000020e+01 8.294219999999999970e+01 2.551539999999999964e+01 8.966939999999999600e+01 8.249049999999999727e+01 2.497169999999999845e+01 9.042940000000000111e+01 8.313710000000000377e+01
1.243829999999999956e+02 1.142720000000000056e+02 1.821950000000000003e+01 1.252109999999999985e+02 1.146569999999999965e+02 1.762709999999999866e+01 1.279800000000000040e+02 1.149539999999999935e+02 1.928290000000000148e+01 1.288019999999999925e+02 1.142540000000000049e+02 1.947690000000000055e+01
1.166159999999999997e+02 8.434459999999999980e+01 6.185419999999999874e+01 1.159500000000000028e+02 8.363379999999999370e+01 6.240039999999999765e+01 1.153190000000000026e+02 8.618080000000000496e+01 6.463280000000000314e+01 1.162600000000000051e+02 8.601860000000000639e+01 6.521380000000000621e+01
4.227479999999999905e+01 1.079749999999999943e+02 3.977900000000000347e+01 4.274399999999999977e+01 1.075819999999999936e+02 3.887189999999999657e+01 4.489370000000000260e+01 1.111320000000000050e+02 4.041550000000000153e+01 4.502400000000000091e+01 1.109369999999999976e+02 4.146650000000000347e+01
