-5.960516174829181182e+03
-5.960578267783959745e+03
-5.960567160939646783e+03
-5.960528698352684842e+03
-5.960578639219382239e+03
-5.960585047500842848e+03
-5.960527984380331873e+03
