-1.799822343920995271e+00 -9.428502438093890881e-01 1.117927419744643380e+00 1.800530888588751655e+00 9.430758324194078446e-01 -1.118257909372313730e+00 -2.893033181290400435e+00 -2.504706223271583543e+00 2.280000067352903059e+00 2.892324636622644274e+00 2.504480686083632612e+00 -2.279669577725232710e+00
-6.725347194998388956e-01 1.250376215962698323e+00 -1.031187082241485031e+00 6.731153774857815408e-01 -1.250762961332187784e+00 1.030285344866220143e+00 2.183807736782786169e+00 -9.050589837134852544e-01 3.949714090457028814e-01 -2.184388394768728592e+00 9.054456776609072222e-01 -3.940696202483705557e-01
3.933758337139799388e-01 -3.206157679618127365e-01 -4.559619919938885935e-01 -3.934955957091323397e-01 3.209690375653750927e-01 4.552362723555952173e-01 -2.940634023510493300e+00 -6.452555183919178594e-01 1.060769889128210686e+00 2.940753785505645812e+00 6.449023002104229407e-01 -1.060044169489916976e+00
2.304386365788740620e-01 1.865855066273504725e+00 -7.994642823715246704e-01 -2.356211582274081173e-01 -1.871848771036477954e+00 7.993948625804315755e-01 -2.055415216091398989e+00 2.876178775921955033e+00 2.444768558577043116e+00 2.060597737739932711e+00 -2.870185071158982026e+00 -2.444699138785950243e+00
-2.139591392199850617e+00 -9.913383738037858661e-01 1.535004147157069232e+00 2.120042676183915287e+00 9.890506060217640893e-01 -1.549521985201457897e+00 -1.006858222255018198e+00 8.734611002685650494e-01 -2.223951967842271726e-01 1.026406989693020799e+00 -8.711733324865431616e-01 2.369130348286158649e-01
-1.001056681758204059e+00 -1.072929819690539688e+00 8.137925786751957213e-01 1.003335913477024999e+00 1.062297690174999643e+00 -8.276665610127131867e-01 1.532723578464494363e+00 -2.581234035329808552e-01 9.526512384483094564e-01 -1.535002810183314859e+00 2.687555844705884489e-01 -9.387772561107918801e-01
-7.760004444041446181e-01 6.565841083893573238e-01 1.506320866496707156e+00 7.775856324782373097e-01 -6.551631109767165340e-01 -1.507417596351842359e+00 -6.010251870066284363e-01 8.906137536283731393e-01 -4.819409141347762215e+00 5.994399989325357447e-01 -8.920347510410139291e-01 4.820505871202897197e+00
