1.317139999999999986e+02 3.641749999999999687e+01 7.135799999999999699e+00 1.307899999999999920e+02 3.630380000000000251e+01 7.679610000000000269e+00 1.350080000000000098e+02 3.772160000000000224e+01 9.042289999999999495e+00 1.359790000000000134e+02 3.718769999999999953e+01 9.150460000000000704e+00
1.083870000000000005e+02 1.248400000000000034e+02 3.979489999999999839e+01 1.088960000000000008e+02 1.244699999999999989e+02 4.072350000000000136e+01 1.046929999999999978e+02 1.233160000000000025e+02 3.871309999999999718e+01 1.055619999999999976e+02 1.231140000000000043e+02 3.806369999999999720e+01
1.867970000000000041e+01 1.377829999999999870e+02 8.938250000000000028e+00 1.849990000000000023e+01 1.381100000000000136e+02 1.002740000000000009e+01 1.493469999999999942e+01 1.377239999999999895e+02 8.232020000000000337e+00 1.457900000000000063e+01 1.386990000000000123e+02 8.656769999999999854e+00
8.300560000000000827e+00 1.056770000000000067e+02 1.074300000000000068e+02 8.814329999999999998e+00 1.055139999999999958e+02 1.064609999999999985e+02 5.929920000000000080e+00 1.052540000000000049e+02 1.045999999999999943e+02 5.889020000000000366e+00 1.043730000000000047e+02 1.053490000000000038e+02
6.172579999999999956e+01 1.851930000000000121e+01 7.464159999999999684e+01 6.068880000000000052e+01 1.883729999999999905e+01 7.496110000000000184e+01 5.925549999999999784e+01 1.805930000000000035e+01 7.236310000000000286e+01 5.843549999999999756e+01 1.903569999999999851e+01 7.257920000000000016e+01
1.415279999999999916e+01 3.607849999999999824e+01 8.175759999999999650e+01 1.379589999999999961e+01 3.686549999999999727e+01 8.240089999999999293e+01 1.495260000000000034e+01 3.458539999999999992e+01 8.462990000000000634e+01 1.534019999999999939e+01 3.530519999999999925e+01 8.537170000000000414e+01
1.314000000000000057e+01 1.098130000000000024e+02 4.500789999999999935e+01 1.306939999999999991e+01 1.103370000000000033e+02 4.395799999999999841e+01 1.015910000000000046e+01 1.105330000000000013e+02 4.469899999999999807e+01 9.848050000000000637e+00 1.105570000000000022e+02 4.361209999999999809e+01
5.891219999999999857e+01 1.172549999999999955e+02 8.666270000000000095e+01 5.962789999999999679e+01 1.169980000000000047e+02 8.747239999999999327e+01 6.088369999999999749e+01 1.161979999999999933e+02 8.300300000000000011e+01 6.195040000000000191e+01 1.159989999999999952e+02 8.330719999999999459e+01
5.461889999999999645e+01 1.977159999999999940e+01 7.967130000000000223e+01 5.497200000000000131e+01 2.223639999999999972e+01 8.048799999999999955e+01 5.432390000000000185e+01 2.125169999999999959e+01 7.983710000000000662e+01 5.518719999999999715e+01 2.039460000000000051e+01 8.060850000000000648e+01
4.806580000000000297e+01 8.285970000000000724e+00 8.388280000000000314e+01 4.852219999999999800e+01 7.972680000000000433e+00 8.486249999999999716e+01 4.633420000000000272e+01 8.043260000000000076e+00 8.737739999999999441e+01 4.608970000000000056e+01 7.781290000000000262e+00 8.631459999999999866e+01
1.317750000000000057e+02 1.304379999999999882e+02 2.842780000000000129e+01 1.309209999999999923e+02 1.297110000000000127e+02 2.901689999999999969e+01 1.320480000000000018e+02 1.320480000000000018e+02 2.827570000000000050e+01 1.316189999999999998e+02 1.314319999999999879e+02 2.716120000000000090e+01
4.497050000000000125e+01 7.669799999999999329e+01 1.243629999999999995e+02 4.422070000000000078e+01 7.671859999999999502e+01 1.251590000000000060e+02 4.342849999999999966e+01 8.013379999999999370e+01 1.249309999999999974e+02 4.259599999999999653e+01 7.933899999999999864e+01 1.250349999999999966e+02
4.207169999999999987e+01 3.619200000000000017e+01 3.158340000000000103e+01 4.213419999999999987e+01 3.633559999999999945e+01 3.045530000000000115e+01 3.995790000000000219e+01 3.370839999999999748e+01 2.944350000000000023e+01 4.083330000000000126e+01 3.385940000000000083e+01 2.877929999999999922e+01
1.402389999999999937e+01 2.832590000000000074e+01 1.306320000000000050e+02 1.433549999999999969e+01 2.547670000000000101e+01 1.299710000000000036e+02 1.296669999999999945e+01 2.792190000000000083e+01 1.299480000000000075e+02 1.384909999999999997e+01 2.714020000000000010e+01 1.299890000000000043e+02
4.808120000000000260e+01 8.794859999999999900e+00 8.362909999999999400e+01 4.881170000000000186e+01 7.989539999999999864e+00 8.411730000000000018e+01 4.653470000000000084e+01 8.567560000000000286e+00 8.741360000000000241e+01 4.640370000000000061e+01 7.914909999999999890e+00 8.649769999999999470e+01
8.224529999999999674e+00 4.879999999999999716e+01 3.769440000000000168e+01 6.498310000000000031e+00 4.875970000000000226e+01 3.705850000000000222e+01 6.994830000000000325e+00 4.819720000000000226e+01 3.489520000000000266e+01 7.414670000000000094e+00 4.873310000000000031e+01 3.581190000000000140e+01
1.151239999999999952e+02 4.211199999999999832e+00 5.608460000000000001e+00 1.140849999999999937e+02 3.909209999999999852e+00 5.974859999999999616e+00 1.151500000000000057e+02 3.166720000000000201e+00 9.356019999999999115e+00 1.155840000000000032e+02 3.587740000000000151e+00 8.357039999999999580e+00
4.156479999999999819e+01 3.662919999999999732e+01 3.144129999999999825e+01 4.262349999999999994e+01 3.665699999999999648e+01 3.102349999999999852e+01 4.082920000000000016e+01 3.339529999999999887e+01 2.961929999999999907e+01 4.029890000000000327e+01 3.374510000000000076e+01 2.861970000000000169e+01
7.026529999999999632e+01 1.047279999999999944e+01 1.393169999999999931e+01 7.064000000000000057e+01 9.510820000000000718e+00 1.423049999999999926e+01 7.149509999999999366e+01 1.221809999999999974e+01 1.432840000000000025e+01 7.089509999999999934e+01 1.210870000000000068e+01 1.334970000000000034e+01
1.306839999999999975e+02 3.914909999999999712e+01 6.683869999999999756e+00 1.298290000000000077e+02 3.854030000000000200e+01 6.984869999999999912e+00 1.317290000000000134e+02 3.922710000000000008e+01 1.106980000000000075e+01 1.318160000000000025e+02 4.028699999999999903e+01 1.075569999999999915e+01
1.877779999999999916e+01 2.679899999999999949e+01 1.270949999999999989e+02 1.807900000000000063e+01 2.607049999999999912e+01 1.281930000000000121e+02 1.747719999999999985e+01 2.610839999999999961e+01 1.270600000000000023e+02 1.740520000000000067e+01 2.638119999999999976e+01 1.254170000000000016e+02
4.431360000000000099e+01 1.099749999999999943e+02 4.180989999999999895e+01 4.467020000000000124e+01 1.108310000000000031e+02 4.121909999999999741e+01 4.454290000000000305e+01 1.136149999999999949e+02 4.217329999999999757e+01 4.548570000000000135e+01 1.128520000000000039e+02 4.207820000000000249e+01
1.354659999999999975e+01 9.630920000000000414e+01 5.520029999999999859e+01 1.343960000000000043e+01 9.586979999999999791e+01 5.618469999999999942e+01 1.201340000000000074e+01 9.493189999999999884e+01 5.337800000000000011e+01 1.209040000000000070e+01 9.594079999999999586e+01 5.407359999999999900e+01
9.348839999999999861e+01 1.543970000000000020e+01 1.503989999999999938e+01 9.282920000000000016e+01 1.611139999999999972e+01 1.434009999999999962e+01 9.154840000000000089e+01 1.713090000000000046e+01 1.122879999999999967e+01 9.220860000000000412e+01 1.625300000000000011e+01 1.136909999999999954e+01
1.872210000000000107e+01 1.377709999999999866e+02 9.003819999999999268e+00 1.845889999999999986e+01 1.381570000000000107e+02 1.006039999999999957e+01 1.496230000000000082e+01 1.376819999999999879e+02 8.305690000000000239e+00 1.452810000000000024e+01 1.386610000000000014e+02 8.677830000000000155e+00
