-5.960541774076848924e+03
-5.960588820958196266e+03
-5.960441058885904567e+03
-5.960416988673240667e+03
-5.958753063207956984e+03
-5.960536748650825757e+03
-5.960196459707802205e+03
-5.960568922142198971e+03
-5.949633119106729282e+03
-5.960519283104197712e+03
-5.951211129898950276e+03
-5.960411122415383034e+03
-5.960522089332826909e+03
-5.947591039156483930e+03
-5.960082103775468568e+03
-5.948568799721107098e+03
-5.960168814354367896e+03
-5.960127596260799692e+03
-5.958089136431746738e+03
-5.960589370981946558e+03
-5.946974671461544858e+03
-5.959572615357954419e+03
-5.958266219752328652e+03
-5.960301542598352171e+03
-5.960377462719726282e+03
