4.022283843137466341e+00 4.945822786616458355e-01 -2.361569401750641894e+00 -4.017558566512931861e+00 -4.927757185870675904e-01 2.364052213434601590e+00 1.033938060007333570e+00 -5.743332259092870373e-01 1.144805374460046571e-01 -1.038663336631868050e+00 5.725266658347087922e-01 -1.169633491299641170e-01
1.073122138222901256e+00 -7.891171339539383434e-01 1.971517079101791969e+00 -1.077443185975004214e+00 7.865982754006779487e-01 -1.972970780949347525e+00 -2.488458855409696469e-01 6.009362782519617890e-02 1.856555179682141399e-01 2.531668818710052782e-01 -5.757471784986836066e-02 -1.842018161206584181e-01
-9.461431073223031119e-01 1.718196805203504596e+00 5.718656968637815474e+00 9.434882374005679750e-01 -1.719085429951562993e+00 -5.719884310544340877e+00 -7.350491954176855414e-01 2.030075501102482693e+00 8.877680564142332864e-01 7.377040653394207892e-01 -2.029186876354423852e+00 -8.865407659297757093e-01
2.554024562545385568e-01 -6.747505992315286361e-02 -4.378741769149560037e-01 -2.172409058507376589e-01 7.890114616052745777e-02 4.651387227336463148e-01 -2.551787702610165409e-01 -5.086961912238011863e+00 4.311072076701009337e+00 2.170171684351481778e-01 5.075535877422704623e+00 -4.338336622519698871e+00
-3.271690322364428916e+00 1.015615348924169048e+00 1.037780162622962132e+00 3.348913206508731477e+00 -1.004576316588688734e+00 -9.460468966340550567e-01 -9.692642634898142262e+00 1.147659324916016566e+01 2.488694522744940407e+00 9.615419750753838812e+00 -1.148763228149564419e+01 -2.580427788733847816e+00
1.601620150020962585e+00 -3.530364867616621716e+00 -2.914913013891239579e+00 -1.612205742565436584e+00 3.544925694509420744e+00 2.884884429101561842e+00 -8.289612658276321322e-02 -1.680060245924497320e-01 -1.462789669540825732e-01 9.348177054930473240e-02 1.534451462775833774e-01 1.763075517437603379e-01
-4.195432897230627622e-01 3.775565854170733981e+00 -7.602073442285497862e+00 6.245496515915630598e-01 -3.805572738847936787e+00 7.606114753990530275e+00 -1.135419715860132683e+00 1.033287879386162872e-01 -3.472114155267709279e+00 9.304133539916324969e-01 -7.332190326141356518e-02 3.468072792140609817e+00
5.211189965372761135e-01 -1.867796043632466152e-01 5.881544492055739148e-01 -5.211862566015351694e-01 1.868756607852924134e-01 -5.878264278371424512e-01 2.920142175354974778e+00 -5.450380226459566879e-01 8.334870762524261290e-01 -2.920074863868648229e+00 5.449419662239108897e-01 -8.338150976208573706e-01
3.969234215803446375e+00 7.972724167453462685e-02 1.079538429536394784e+00 -8.750775015376158761e-01 -1.529163423044838321e+00 -3.747019047677454306e+00 -3.390891868403367759e+00 8.426565256274290761e+00 1.380373413691751594e+00 2.967351541375370383e-01 -6.977129074903986705e+00 1.287107204449307707e+00
1.224412082808416846e+00 -7.969812649992952247e-01 2.470336896077959477e+00 -1.057965175301849303e+00 8.156070063260978387e-01 -2.612616666000273202e+00 -5.419386089508886339e-01 -5.547720143309552432e-01 -2.224128808332322738e+00 3.754916500222535980e-01 5.361463244262202332e-01 2.366408578254636907e+00
-4.357162601377254418e+00 2.185602366937709817e+00 4.018043219498895757e-02 3.972223329163778072e+00 2.394518091486097955e+00 -2.154859323942516003e+00 -9.060867565761345777e-01 -4.039479433923617080e+00 -1.556447869203641865e+00 1.291026028789611146e+00 -5.406410759222584073e-01 3.671126760951168855e+00
1.310049211275938097e+00 -4.970955836316186954e-02 -1.391334387328802880e+00 -1.274882636348160680e+00 -1.136412264606560807e-02 1.392178326300224533e+00 -4.706817696394635320e+00 -4.472956972647279983e+00 5.921276266711996694e-01 4.671651121466858569e+00 4.534030653656507148e+00 -5.929715656426212123e-01
2.604983317193750314e-01 5.869295241362203486e-01 -4.562414812150358934e+00 -2.472627029275085153e-01 -5.638382390477063577e-01 4.579660230919894381e+00 4.406742113331768573e-01 7.367728116974243957e-02 -3.441056254953357985e-01 -4.539097887029759359e-01 -9.676856625825651370e-02 3.268602067258003507e-01
-6.127385683349931833e-01 3.662782810594190863e+00 1.441204331120423454e+00 -1.948238052044921620e+00 5.624123873918956740e+00 2.926455571111448092e-02 -6.183846959172735858e+00 6.454465050927316483e+00 4.210624518625158963e-01 8.744823579552651438e+00 -1.574137173544046497e+01 -1.891531338694053987e+00
6.068785043831844028e+00 -6.682858426194386858e+00 4.042460011220747162e+00 -6.055227564319642930e+00 6.684612690026341397e+00 -4.061392690868316002e+00 -4.409830522704396571e-01 -2.180868605672041660e+00 -3.054144689341827146e+00 4.274255727582389475e-01 2.179114341840086677e+00 3.073077368989395541e+00
-5.158675436072901910e+00 -1.790328698979381239e-01 -1.821521890753262873e+00 7.989782821273924363e+00 1.058258846729206448e+00 8.757753504153370505e-01 1.945744698837129638e+00 1.443414348736421216e-01 -1.769788565502502742e+00 -4.776852084038152313e+00 -1.023567411704910501e+00 2.715535105840428454e+00
-4.683662082299708374e+00 -1.305757782634701325e+00 1.436012502077676389e+00 4.546795667686830633e+00 1.370568768086040778e+00 -1.792445231276706963e+00 2.858643799490460324e+00 2.783592880632222766e+00 -6.616563297031545332e+00 -2.721777384877582140e+00 -2.848403866083562441e+00 6.972996026230576128e+00
4.237776552960211163e+00 1.067665588376785768e-01 -1.675380529251746742e+00 -4.238357930855098488e+00 -1.116000789142507915e-01 1.673620043349627107e+00 -4.150616559964378283e+00 2.746731845736965827e+00 -7.824821754407085272e+00 4.151197937859265608e+00 -2.741898325660393709e+00 7.826582240309204686e+00
-5.852111991872247287e+00 -6.292041714512501827e-01 -8.922901130281014614e-01 2.548825123036652318e+00 -5.360894876150386956e+00 1.683781815213961641e+00 -1.630382312132833578e+00 1.682676240763220532e+00 -4.814901277224517884e+00 4.933669180968428769e+00 4.307422858260483878e+00 4.023409575038657593e+00
1.738633631746823394e+00 1.236818736450497447e+00 -6.113246671676640931e-01 -1.739147286778844670e+00 -1.237150048831247462e+00 6.105721052101481527e-01 4.177163665097638479e-02 4.952918517707516899e-01 -1.465901218843818354e-01 -4.125798161895537219e-02 -4.949605393900017303e-01 1.473426324198303938e-01
-4.139804504634738702e-01 -8.086500633951580752e-02 2.094229415375609360e+00 1.454698510067560902e+00 -4.309783748222457134e-01 -2.465994353901651337e+00 -1.481895641555789789e+00 2.511242739378836575e+00 -4.225241755525979137e+00 4.411776333737701394e-01 -1.999399358217075484e+00 4.597006745474088163e+00
-3.303801500886898723e-01 -8.167749043226200101e-01 6.149529054046587451e-01 3.049174335143700100e-03 -1.748874799283340886e-01 -1.047014897454833227e+00 9.010651654299744351e+00 -7.127058391584077945e+00 -8.589241846371424849e-01 -8.683320678546198934e+00 8.118720827257099870e+00 1.290986228109384459e+00
3.567018208781342015e+00 2.386010618954544693e+00 -1.641823670724248618e+00 -1.978365830002761505e-01 -1.727737861291332333e+00 4.349441886478088826e+00 8.997667787950242024e-01 9.389993634468423167e+00 6.519192372674871727e+00 -4.268948353154022435e+00 -1.004826639213163553e+01 -9.226810588428712379e+00
-4.632494245524985566e+00 4.718714140283216452e+00 -4.923862632746220491e+00 4.647809588413864823e+00 -4.723114429441300111e+00 4.993961657928555731e+00 1.786555861888643182e-01 -2.400057636549120244e-01 2.882016620398407392e-02 -1.939708776556758607e-01 2.444060528129961829e-01 -9.891919138631891095e-02
-1.476646579751941246e+00 2.164738120169527935e+00 5.923097122121333769e+00 1.473376547636986889e+00 -2.166110009507729028e+00 -5.925060622345850625e+00 -1.514666205249507680e+00 3.431768041171312067e+00 1.308364881455751139e+00 1.517936237364462038e+00 -3.430396100411043481e+00 -1.306401381231234948e+00
