 vasp.5.4.4.18Apr17-6-g9f103f2a35 (build Jul 12 2018 13:43:46) complex           
 executed on             LinuxGNU date 2019.06.24  12:44:35
 running on    1 total cores
 distrk:  each k-point on    1 cores,    1 groups
 distr:  one band on NCORES_PER_BAND=   1 cores,    1 groups


--------------------------------------------------------------------------------------------------------


 INCAR:
 POTCAR:    PAW_PBE H 15Jun2001                   
 POTCAR:    PAW_PBE C 08Apr2002                   
 POTCAR:    PAW_PBE H 15Jun2001                   
   VRHFIN =H: ultrasoft test                                                    
   LEXCH  = PE                                                                  
   EATOM  =    12.4884 eV,    0.9179 Ry                                         
                                                                                
   TITEL  = PAW_PBE H 15Jun2001                                                 
   LULTRA =        F    use ultrasoft PP ?                                      
   IUNSCR =        0    unscreen: 0-lin 1-nonlin 2-no                           
   RPACOR =    0.000    partial core radius                                     
   POMASS =    1.000; ZVAL   =    1.000    mass and valenz                      
   RCORE  =    1.100    outmost cutoff radius                                   
   RWIGS  =    0.700; RWIGS  =    0.370    wigner-seitz radius (au A)           
   ENMAX  =  250.000; ENMIN  =  200.000 eV                                      
   RCLOC  =    0.701    cutoff for local pot                                    
   LCOR   =        T    correct aug charges                                     
   LPAW   =        T    paw PP                                                  
   EAUG   =  400.000                                                            
   RMAX   =    1.123    core radius for proj-oper                               
   RAUG   =    1.200    factor for augmentation sphere                          
   RDEP   =    1.112    radius for radial grids                                 
   RDEPT  =    0.926    core radius for aug-charge                              
                                                                                
   Atomic configuration                                                         
    2 entries                                                                   
     n  l   j            E        occ.                                          
     1  0  0.50        -6.4927   1.0000                                         
     2  1  0.50        -3.4015   0.0000                                         
   Description                                                                  
     l       E           TYP  RCUT    TYP  RCUT                                 
     0     -6.4927494     23  1.100                                             
     0      6.8029130     23  1.100                                             
     1     -4.0817478     23  1.100                                             
  local pseudopotential read in
  atomic valenz-charges read in
  non local Contribution for L=           0  read in
    real space projection operators read in
  non local Contribution for L=           0  read in
    real space projection operators read in
  non local Contribution for L=           1  read in
    real space projection operators read in
    PAW grid and wavefunctions read in

   number of l-projection  operators is LMAX  =           3
   number of lm-projection operators is LMMAX =           5

 POTCAR:    PAW_PBE C 08Apr2002                   
   VRHFIN =C: s2p2                                                              
   LEXCH  = PE                                                                  
   EATOM  =   147.1560 eV,   10.8157 Ry                                         
                                                                                
   TITEL  = PAW_PBE C 08Apr2002                                                 
   LULTRA =        F    use ultrasoft PP ?                                      
   IUNSCR =        1    unscreen: 0-lin 1-nonlin 2-no                           
   RPACOR =    1.200    partial core radius                                     
   POMASS =   12.011; ZVAL   =    4.000    mass and valenz                      
   RCORE  =    1.500    outmost cutoff radius                                   
   RWIGS  =    1.630; RWIGS  =    0.863    wigner-seitz radius (au A)           
   ENMAX  =  400.000; ENMIN  =  300.000 eV                                      
   ICORE  =        2    local potential                                         
   LCOR   =        T    correct aug charges                                     
   LPAW   =        T    paw PP                                                  
   EAUG   =  644.873                                                            
   DEXC   =    0.000                                                            
   RMAX   =    1.529    core radius for proj-oper                               
   RAUG   =    1.300    factor for augmentation sphere                          
   RDEP   =    1.501    radius for radial grids                                 
   RDEPT  =    1.300    core radius for aug-charge                              
                                                                                
   Atomic configuration                                                         
    4 entries                                                                   
     n  l   j            E        occ.                                          
     1  0  0.50      -273.3789   2.0000                                         
     2  0  0.50       -13.7508   2.0000                                         
     2  1  0.50        -5.2854   2.0000                                         
     3  2  1.50        -5.4423   0.0000                                         
   Description                                                                  
     l       E           TYP  RCUT    TYP  RCUT                                 
     0    -13.7508458     23  1.200                                             
     0     -8.2022199     23  1.200                                             
     1     -5.2854383     23  1.500                                             
     1     34.0145650     23  1.500                                             
     2     -5.4423304      7  1.500                                             
  local pseudopotential read in
  partial core-charges read in
  partial kinetic energy density read in
  atomic valenz-charges read in
  non local Contribution for L=           0  read in
    real space projection operators read in
  non local Contribution for L=           0  read in
    real space projection operators read in
  non local Contribution for L=           1  read in
    real space projection operators read in
  non local Contribution for L=           1  read in
    real space projection operators read in
    PAW grid and wavefunctions read in

   number of l-projection  operators is LMAX  =           4
   number of lm-projection operators is LMMAX =           8


 ----------------------------------------------------------------------------- 
|                                                                             |
|  ADVICE TO THIS USER RUNNING 'VASP/VAMP'   (HEAR YOUR MASTER'S VOICE ...):  |
|                                                                             |
|      You have a (more or less) 'small supercell' and for smaller cells      |
|      it is recommended  to use the reciprocal-space projection scheme!      |
|      The real space optimization is not  efficient for small cells and it   |
|      is also less accurate ...                                              |
|      Therefore set LREAL=.FALSE. in the  INCAR file                         |
|                                                                             |
 ----------------------------------------------------------------------------- 

 Optimization of the real space projectors (new method)

 maximal supplied QI-value         = 34.20
 optimisation between [QCUT,QGAM] = [  9.92, 20.18] = [ 27.55,114.04] Ry 
 Optimized for a Real-space Cutoff    1.34 Angstroem

   l    n(q)    QCUT    max X(q) W(low)/X(q) W(high)/X(q)  e(spline) 
   0      8     9.919    19.460    0.16E-03    0.20E-03    0.36E-06
   0      8     9.919    12.209    0.16E-03    0.20E-03    0.35E-06
   1      8     9.919     4.655    0.19E-03    0.46E-03    0.40E-06
 Optimization of the real space projectors (new method)

 maximal supplied QI-value         = 25.13
 optimisation between [QCUT,QGAM] = [ 10.05, 20.36] = [ 28.30,116.06] Ry 
 Optimized for a Real-space Cutoff    1.51 Angstroem

   l    n(q)    QCUT    max X(q) W(low)/X(q) W(high)/X(q)  e(spline) 
   0      9    10.053   115.676    0.19E-03    0.21E-03    0.38E-06
   0      9    10.053    87.132    0.19E-03    0.21E-03    0.38E-06
   1      9    10.053     4.429    0.87E-04    0.11E-03    0.39E-06
   1      9    10.053     2.733    0.59E-04    0.62E-04    0.43E-06
  PAW_PBE H 15Jun2001                   :
 energy of atom  1       EATOM=  -12.4884
 kinetic energy error for atom=    0.0098 (will be added to EATOM!!)
  PAW_PBE C 08Apr2002                   :
 energy of atom  2       EATOM= -147.1560
 kinetic energy error for atom=    0.0288 (will be added to EATOM!!)


 POSCAR: POSCAR file written by OVITO            
  positions in cartesian coordinates
  No initial velocities read in
 exchange correlation table for  LEXCH =        8
   RHO(1)=    0.500       N(1)  =     2000
   RHO(2)=  100.500       N(2)  =     4000



--------------------------------------------------------------------------------------------------------


 ion  position               nearest neighbor table
   1  0.507  0.470  0.339-   5 1.11
   2  0.474  0.370  0.478-   5 1.09
   3  0.420  0.528  0.479-   5 1.12
   4  0.601  0.506  0.477-   5 1.12
   5  0.504  0.467  0.446-   2 1.09   1 1.11   3 1.12   4 1.12


IMPORTANT INFORMATION: All symmetrisations will be switched off!
NOSYMM: (Re-)initialisation of all symmetry stuff for point group C_1.




Automatic generation of k-mesh.
 generate k-points for:    1    1    1
Space group operators:
 irot       det(A)        alpha          n_x          n_y          n_z        tau_x        tau_y        tau_z
    1     1.000000     0.000001     1.000000     0.000000     0.000000     0.000000     0.000000     0.000000
 
 Subroutine IBZKPT returns following result:
 ===========================================
 
 Found      1 irreducible k-points:
 
 Following reciprocal coordinates:
            Coordinates               Weight
  0.000000  0.000000  0.000000      1.000000
 
 Following cartesian coordinates:
            Coordinates               Weight
  0.000000  0.000000  0.000000      1.000000
 


--------------------------------------------------------------------------------------------------------




 Dimension of arrays:
   k-points           NKPTS =      1   k-points in BZ     NKDIM =      1   number of bands    NBANDS=      8
   number of dos      NEDOS =    301   number of ions     NIONS =      5
   non local maximal  LDIM  =      4   non local SUM 2l+1 LMDIM =      8
   total plane-waves  NPLWV = 343000
   max r-space proj   IRMAX =   4590   max aug-charges    IRDMAX=   3925
   dimension x,y,z NGX =    70 NGY =   70 NGZ =   70
   dimension x,y,z NGXF=   140 NGYF=  140 NGZF=  140
   support grid    NGXF=   140 NGYF=  140 NGZF=  140
   ions per type =               4   1
   NGX,Y,Z   is equivalent  to a cutoff of  11.30, 11.52, 11.14 a.u.
   NGXF,Y,Z  is equivalent  to a cutoff of  22.61, 23.04, 22.27 a.u.

 SYSTEM =  unknown system                          
 POSCAR =  POSCAR file written by OVITO            

 Startparameter for this run:
   NWRITE =      2    write-flag & timer
   PREC   = a         normal or accurate (medium, high low for compatibility)
   ISTART =      0    job   : 0-new  1-cont  2-samecut
   ICHARG =      2    charge: 1-file 2-atom 10-const
   ISPIN  =      1    spin polarized calculation?
   LNONCOLLINEAR =      F non collinear calculations
   LSORBIT =      F    spin-orbit coupling
   INIWAV =      1    electr: 0-lowe 1-rand  2-diag
   LASPH  =      F    aspherical Exc in radial PAW
   METAGGA=      F    non-selfconsistent MetaGGA calc.

 Electronic Relaxation 1
   ENCUT  =  400.0 eV  29.40 Ry    5.42 a.u.  16.79 16.47 17.04*2*pi/ulx,y,z
   ENINI  =  400.0     initial cutoff
   ENAUG  =  644.9 eV  augmentation charge cutoff
   NELM   =    120;   NELMIN=  4; NELMDL= -5     # of ELM steps 
   EDIFF  = 0.1E-05   stopping-criterion for ELM
   LREAL  =      T    real-space projection
   NLSPLINE    = F    spline interpolate recip. space projectors
   LCOMPAT=      F    compatible to vasp.4.4
   GGA_COMPAT  = T    GGA compatible to vasp.4.4-vasp.4.6
   LMAXPAW     = -100 max onsite density
   LMAXMIX     =    2 max onsite mixed and CHGCAR
   VOSKOWN=      0    Vosko Wilk Nusair interpolation
   ROPT   =   -0.00025  -0.00025
 Ionic relaxation
   EDIFFG = 0.1E-04   stopping-criterion for IOM
   NSW    =      0    number of steps for IOM
   NBLOCK =      1;   KBLOCK =      1    inner block; outer block 
   IBRION =     -1    ionic relax: 0-MD 1-quasi-New 2-CG
   NFREE  =      0    steps in history (QN), initial steepest desc. (CG)
   ISIF   =      2    stress and relaxation
   IWAVPR =     10    prediction:  0-non 1-charg 2-wave 3-comb
   ISYM   =      0    0-nonsym 1-usesym 2-fastsym
   LCORR  =      T    Harris-Foulkes like correction to forces

   POTIM  = 0.5000    time-step for ionic-motion
   TEIN   =    0.0    initial temperature
   TEBEG  =    0.0;   TEEND  =   0.0 temperature during run
   SMASS  =  -3.00    Nose mass-parameter (am)
   estimated Nose-frequenzy (Omega)   =  0.10E-29 period in steps =****** mass=  -0.242E-26a.u.
   SCALEE = 1.0000    scale energy and forces
   NPACO  =    256;   APACO  = 16.0  distance and # of slots for P.C.
   PSTRESS=    0.0 pullay stress

  Mass of Ions in am
   POMASS =   1.00 12.01
  Ionic Valenz
   ZVAL   =   1.00  4.00
  Atomic Wigner-Seitz radii
   RWIGS  =  -1.00 -1.00
  virtual crystal weights 
   VCA    =   1.00  1.00
   NELECT =       8.0000    total number of electrons
   NUPDOWN=      -1.0000    fix difference up-down

 DOS related values:
   EMIN   =  10.00;   EMAX   =-10.00  energy-range for DOS
   EFERMI =   0.00
   ISMEAR =     0;   SIGMA  =   0.05  broadening in eV -4-tet -1-fermi 0-gaus

 Electronic relaxation 2 (details)
   IALGO  =     38    algorithm
   LDIAG  =      T    sub-space diagonalisation (order eigenvalues)
   LSUBROT=      F    optimize rotation matrix (better conditioning)
   TURBO    =      0    0=normal 1=particle mesh
   IRESTART =      0    0=no restart 2=restart with 2 vectors
   NREBOOT  =      0    no. of reboots
   NMIN     =      0    reboot dimension
   EREF     =   0.00    reference energy to select bands
   IMIX   =      4    mixing-type and parameters
     AMIX     =   0.40;   BMIX     =  1.00
     AMIX_MAG =   1.60;   BMIX_MAG =  1.00
     AMIN     =   0.10
     WC   =   100.;   INIMIX=   1;  MIXPRE=   1;  MAXMIX= -45

 Intra band minimization:
   WEIMIN = 0.0000     energy-eigenvalue tresh-hold
   EBREAK =  0.31E-07  absolut break condition
   DEPER  =   0.30     relativ break condition  

   TIME   =   0.40     timestep for ELM

  volume/ion in A,a.u.               =     217.28      1466.26
  Fermi-wavevector in a.u.,A,eV,Ry     =   0.318500  0.601878  1.380209  0.101442
  Thomas-Fermi vector in A             =   1.203397

 Write flags
   LWAVE        =      F    write WAVECAR
   LDOWNSAMPLE  =      F    k-point downsampling of WAVECAR
   LCHARG       =      F    write CHGCAR
   LVTOT        =      F    write LOCPOT, total local potential
   LVHAR        =      F    write LOCPOT, Hartree potential only
   LELF         =      F    write electronic localiz. function (ELF)
   LORBIT       =      0    0 simple, 1 ext, 2 COOP (PROOUT), +10 PAW based schemes


 Dipole corrections
   LMONO  =      F    monopole corrections only (constant potential shift)
   LDIPOL =      F    correct potential (dipole corrections)
   IDIPOL =      0    1-x, 2-y, 3-z, 4-all directions 
   EPSILON=  1.0000000 bulk dielectric constant

 Exchange correlation treatment:
   GGA     =    --    GGA type
   LEXCH   =     8    internal setting for exchange type
   VOSKOWN=      0    Vosko Wilk Nusair interpolation
   LHFCALC =     F    Hartree Fock is set to
   LHFONE  =     F    Hartree Fock one center treatment
   AEXX    =    0.0000 exact exchange contribution

 Linear response parameters
   LEPSILON=     F    determine dielectric tensor
   LRPA    =     F    only Hartree local field effects (RPA)
   LNABLA  =     F    use nabla operator in PAW spheres
   LVEL    =     F    velocity operator in full k-point grid
   LINTERFAST=   F  fast interpolation
   KINTER  =     0    interpolate to denser k-point grid
   CSHIFT  =0.1000    complex shift for real part using Kramers Kronig
   OMEGAMAX=  -1.0    maximum frequency
   DEG_THRESHOLD= 0.2000000E-02 threshold for treating states as degnerate
   RTIME   =   -0.100 relaxation time in fs
  (WPLASMAI=    0.000 imaginary part of plasma frequency in eV, 0.658/RTIME)
   DFIELD  = 0.0000000 0.0000000 0.0000000 field for delta impulse in time

 Orbital magnetization related:
   ORBITALMAG=     F  switch on orbital magnetization
   LCHIMAG   =     F  perturbation theory with respect to B field
   DQ        =  0.001000  dq finite difference perturbation B field
   LLRAUG    =     F  two centre corrections for induced B field



--------------------------------------------------------------------------------------------------------


 Static calculation
 charge density and potential will be updated during run
 non-spin polarized calculation
 Variant of blocked Davidson
 Davidson routine will perform the subspace rotation
 perform sub-space diagonalisation
    after iterative eigenvector-optimisation
 modified Broyden-mixing scheme, WC =      100.0
 initial mixing is a Kerker type mixing with AMIX =  0.4000 and BMIX =      1.0000
 Hartree-type preconditioning will be used
 using additional bands            4
 real space projection scheme for non local part
 use partial core corrections
 calculate Harris-corrections to forces   (improved forces if not selfconsistent)
 use gradient corrections 
 use of overlap-Matrix (Vanderbilt PP)
 Gauss-broadening in eV      SIGMA  =   0.05


--------------------------------------------------------------------------------------------------------


  energy-cutoff  :      400.00
  volume of cell :     1086.39
      direct lattice vectors                 reciprocal lattice vectors
    10.294488900  0.000000000  0.000000000     0.097139354 -0.000000700 -0.000613193
     0.000072740 10.100153900  0.000000000    -0.000000000  0.099008392  0.000976980
     0.065955200 -0.103101700 10.448452000     0.000000000  0.000000000  0.095707958

  length of vectors
    10.294488900 10.100153900 10.449168830     0.097141289  0.099013212  0.095707958



 k-points in units of 2pi/SCALE and weight: read from INCAR                         
   0.00000000  0.00000000  0.00000000       1.000

 k-points in reciprocal lattice and weights: read from INCAR                         
   0.00000000  0.00000000  0.00000000       1.000

 position of ions in fractional coordinates (direct lattice) 
   0.50684627  0.47010009  0.33915638
   0.47355876  0.36998506  0.47827177
   0.41956827  0.52820320  0.47892259
   0.60137193  0.50586693  0.47688781
   0.50424797  0.46689290  0.44571767

 position of ions in cartesian coordinates  (Angst):
   5.24012660  4.71311570  3.54365920
   4.90661680  3.68759540  4.99719960
   4.35086680  5.28555590  5.00399970
   6.22230670  5.06016590  4.98273940
   5.22040650  4.66973590  4.65705970



--------------------------------------------------------------------------------------------------------


 k-point  1 :   0.0000 0.0000 0.0000  plane waves:   19703

 maximum and minimum number of plane-waves per node :     19703    19703

 maximum number of plane-waves:     19703
 maximum index in each direction: 
   IXMAX=   16   IYMAX=   16   IZMAX=   17
   IXMIN=  -16   IYMIN=  -16   IZMIN=  -17


 serial   3D FFT for wavefunctions
 parallel 3D FFT for charge:
    minimum data exchange during FFTs selected (reduces bandwidth)


 total amount of memory used by VASP MPI-rank0   297513. kBytes
=======================================================================

   base      :      30000. kBytes
   nonlr-proj:       1243. kBytes
   fftplans  :      94700. kBytes
   grid      :     169030. kBytes
   one-center:         15. kBytes
   wavefun   :       2525. kBytes

     INWAV:  cpu time    0.0000: real time    0.0000
 Broyden mixing: mesh for mixing (old mesh)
   NGX = 33   NGY = 33   NGZ = 35
  (NGX  =140   NGY  =140   NGZ  =140)
  gives a total of  38115 points

 initial charge density was supplied:
 charge density of overlapping atoms calculated
 number of electron       8.0000000 magnetization 
 keeping initial charge density in first step


--------------------------------------------------------------------------------------------------------


 Maximum index for non-local projection operator         4413
 Maximum index for augmentation-charges         3607 (set IRDMAX)


--------------------------------------------------------------------------------------------------------


 First call to EWALD:  gamma=   0.172
 Maximum number of real-space cells 3x 3x 3
 Maximum number of reciprocal cells 3x 3x 3

    FEWALD:  cpu time    0.0008: real time    0.0008


--------------------------------------- Iteration      1(   1)  ---------------------------------------


    POTLOK:  cpu time    2.1404: real time    2.1457
    SETDIJ:  cpu time    0.0076: real time    0.0076
     EDDAV:  cpu time    0.7485: real time    0.7503
       DOS:  cpu time    0.0002: real time    0.0002
    --------------------------------------------
      LOOP:  cpu time    2.8967: real time    2.9037

 eigenvalue-minimisations  :    16
 total energy-change (2. order) : 0.5711643E+02  (-0.1448899E+03)
 number of electron       8.0000000 magnetization 
 augmentation part        8.0000000 magnetization 

 Free energy of the ion-electron system (eV)
  ---------------------------------------------------
  alpha Z        PSCENC =         0.22298748
  Ewald energy   TEWEN  =       129.13202942
  -Hartree energ DENC   =      -245.74432370
  -exchange      EXHF   =         0.00000000
  -V(xc)+E(xc)   XCENC  =        21.93635712
  PAW double counting   =       117.05815612     -117.66307307
  entropy T*S    EENTRO =        -0.00000000
  eigenvalues    EBANDS =       -44.86746261
  atomic energy  EATOM  =       197.04175453
  Solvation  Ediel_sol  =         0.00000000
  ---------------------------------------------------
  free energy    TOTEN  =        57.11642529 eV

  energy without entropy =       57.11642529  energy(sigma->0) =       57.11642529


--------------------------------------------------------------------------------------------------------




--------------------------------------- Iteration      1(   2)  ---------------------------------------


     EDDAV:  cpu time    1.2687: real time    1.2719
       DOS:  cpu time    0.0001: real time    0.0001
    --------------------------------------------
      LOOP:  cpu time    1.2688: real time    1.2720

 eigenvalue-minimisations  :    32
 total energy-change (2. order) :-0.7193585E+02  (-0.7193585E+02)
 number of electron       8.0000000 magnetization 
 augmentation part        8.0000000 magnetization 

 Free energy of the ion-electron system (eV)
  ---------------------------------------------------
  alpha Z        PSCENC =         0.22298748
  Ewald energy   TEWEN  =       129.13202942
  -Hartree energ DENC   =      -245.74432370
  -exchange      EXHF   =         0.00000000
  -V(xc)+E(xc)   XCENC  =        21.93635712
  PAW double counting   =       117.05815612     -117.66307307
  entropy T*S    EENTRO =        -0.00000000
  eigenvalues    EBANDS =      -116.80331320
  atomic energy  EATOM  =       197.04175453
  Solvation  Ediel_sol  =         0.00000000
  ---------------------------------------------------
  free energy    TOTEN  =       -14.81942530 eV

  energy without entropy =      -14.81942530  energy(sigma->0) =      -14.81942530


--------------------------------------------------------------------------------------------------------




--------------------------------------- Iteration      1(   3)  ---------------------------------------


     EDDAV:  cpu time    0.6163: real time    0.6177
       DOS:  cpu time    0.0001: real time    0.0001
    --------------------------------------------
      LOOP:  cpu time    0.6164: real time    0.6178

 eigenvalue-minimisations  :    16
 total energy-change (2. order) :-0.1185368E+02  (-0.1185368E+02)
 number of electron       8.0000000 magnetization 
 augmentation part        8.0000000 magnetization 

 Free energy of the ion-electron system (eV)
  ---------------------------------------------------
  alpha Z        PSCENC =         0.22298748
  Ewald energy   TEWEN  =       129.13202942
  -Hartree energ DENC   =      -245.74432370
  -exchange      EXHF   =         0.00000000
  -V(xc)+E(xc)   XCENC  =        21.93635712
  PAW double counting   =       117.05815612     -117.66307307
  entropy T*S    EENTRO =        -0.00000000
  eigenvalues    EBANDS =      -128.65699050
  atomic energy  EATOM  =       197.04175453
  Solvation  Ediel_sol  =         0.00000000
  ---------------------------------------------------
  free energy    TOTEN  =       -26.67310260 eV

  energy without entropy =      -26.67310260  energy(sigma->0) =      -26.67310260


--------------------------------------------------------------------------------------------------------




--------------------------------------- Iteration      1(   4)  ---------------------------------------


     EDDAV:  cpu time    1.3360: real time    1.3392
       DOS:  cpu time    0.0001: real time    0.0001
    --------------------------------------------
      LOOP:  cpu time    1.3361: real time    1.3393

 eigenvalue-minimisations  :    32
 total energy-change (2. order) :-0.5617579E+00  (-0.5617579E+00)
 number of electron       8.0000000 magnetization 
 augmentation part        8.0000000 magnetization 

 Free energy of the ion-electron system (eV)
  ---------------------------------------------------
  alpha Z        PSCENC =         0.22298748
  Ewald energy   TEWEN  =       129.13202942
  -Hartree energ DENC   =      -245.74432370
  -exchange      EXHF   =         0.00000000
  -V(xc)+E(xc)   XCENC  =        21.93635712
  PAW double counting   =       117.05815612     -117.66307307
  entropy T*S    EENTRO =        -0.00000000
  eigenvalues    EBANDS =      -129.21874838
  atomic energy  EATOM  =       197.04175453
  Solvation  Ediel_sol  =         0.00000000
  ---------------------------------------------------
  free energy    TOTEN  =       -27.23486049 eV

  energy without entropy =      -27.23486049  energy(sigma->0) =      -27.23486049


--------------------------------------------------------------------------------------------------------




--------------------------------------- Iteration      1(   5)  ---------------------------------------


     EDDAV:  cpu time    1.3221: real time    1.3253
       DOS:  cpu time    0.0001: real time    0.0001
    CHARGE:  cpu time    0.1672: real time    0.1676
    MIXING:  cpu time    0.0511: real time    0.0512
    --------------------------------------------
      LOOP:  cpu time    1.5405: real time    1.5442

 eigenvalue-minimisations  :    32
 total energy-change (2. order) :-0.2592238E-03  (-0.2592238E-03)
 number of electron       8.0000002 magnetization 
 augmentation part        0.2203187 magnetization 

 Broyden mixing:
  rms(total) = 0.84614E+00    rms(broyden)= 0.84594E+00
  rms(prec ) = 0.11847E+01
  weight for this iteration     100.00

 Free energy of the ion-electron system (eV)
  ---------------------------------------------------
  alpha Z        PSCENC =         0.22298748
  Ewald energy   TEWEN  =       129.13202942
  -Hartree energ DENC   =      -245.74432370
  -exchange      EXHF   =         0.00000000
  -V(xc)+E(xc)   XCENC  =        21.93635712
  PAW double counting   =       117.05815612     -117.66307307
  entropy T*S    EENTRO =        -0.00000000
  eigenvalues    EBANDS =      -129.21900761
  atomic energy  EATOM  =       197.04175453
  Solvation  Ediel_sol  =         0.00000000
  ---------------------------------------------------
  free energy    TOTEN  =       -27.23511971 eV

  energy without entropy =      -27.23511971  energy(sigma->0) =      -27.23511971


--------------------------------------------------------------------------------------------------------




--------------------------------------- Iteration      1(   6)  ---------------------------------------


    POTLOK:  cpu time    2.2920: real time    2.2975
    SETDIJ:  cpu time    0.0075: real time    0.0075
     EDDAV:  cpu time    1.3311: real time    1.3343
       DOS:  cpu time    0.0001: real time    0.0001
    CHARGE:  cpu time    0.1481: real time    0.1485
    MIXING:  cpu time    0.0412: real time    0.0413
    --------------------------------------------
      LOOP:  cpu time    3.8201: real time    3.8292

 eigenvalue-minimisations  :    32
 total energy-change (2. order) : 0.2727725E+01  (-0.8555032E+00)
 number of electron       8.0000002 magnetization 
 augmentation part        0.1928032 magnetization 

 Broyden mixing:
  rms(total) = 0.43693E+00    rms(broyden)= 0.43682E+00
  rms(prec ) = 0.54202E+00
  weight for this iteration     100.00

 eigenvalues of (default mixing * dielectric matrix)
  average eigenvalue GAMMA=   1.1823
  1.1823

 Free energy of the ion-electron system (eV)
  ---------------------------------------------------
  alpha Z        PSCENC =         0.22298748
  Ewald energy   TEWEN  =       129.13202942
  -Hartree energ DENC   =      -264.92048221
  -exchange      EXHF   =         0.00000000
  -V(xc)+E(xc)   XCENC  =        23.09878162
  PAW double counting   =       233.90853970     -234.68089012
  entropy T*S    EENTRO =        -0.00000000
  eigenvalues    EBANDS =      -108.31011513
  atomic energy  EATOM  =       197.04175453
  Solvation  Ediel_sol  =         0.00000000
  ---------------------------------------------------
  free energy    TOTEN  =       -24.50739471 eV

  energy without entropy =      -24.50739471  energy(sigma->0) =      -24.50739471


--------------------------------------------------------------------------------------------------------




--------------------------------------- Iteration      1(   7)  ---------------------------------------


    POTLOK:  cpu time    2.2584: real time    2.2638
    SETDIJ:  cpu time    0.0074: real time    0.0074
     EDDAV:  cpu time    1.0542: real time    1.0567
       DOS:  cpu time    0.0001: real time    0.0001
    CHARGE:  cpu time    0.1599: real time    0.1603
    MIXING:  cpu time    0.0493: real time    0.0494
    --------------------------------------------
      LOOP:  cpu time    3.5294: real time    3.5378

 eigenvalue-minimisations  :    24
 total energy-change (2. order) : 0.4520430E+00  (-0.6486736E-01)
 number of electron       8.0000002 magnetization 
 augmentation part        0.1849662 magnetization 

 Broyden mixing:
  rms(total) = 0.21773E+00    rms(broyden)= 0.21770E+00
  rms(prec ) = 0.26821E+00
  weight for this iteration     100.00

 eigenvalues of (default mixing * dielectric matrix)
  average eigenvalue GAMMA=   1.6472
  1.2288  2.0656

 Free energy of the ion-electron system (eV)
  ---------------------------------------------------
  alpha Z        PSCENC =         0.22298748
  Ewald energy   TEWEN  =       129.13202942
  -Hartree energ DENC   =      -274.45721684
  -exchange      EXHF   =         0.00000000
  -V(xc)+E(xc)   XCENC  =        23.82142811
  PAW double counting   =       354.00691706     -354.80230466
  entropy T*S    EENTRO =        -0.00000000
  eigenvalues    EBANDS =       -99.02094681
  atomic energy  EATOM  =       197.04175453
  Solvation  Ediel_sol  =         0.00000000
  ---------------------------------------------------
  free energy    TOTEN  =       -24.05535171 eV

  energy without entropy =      -24.05535171  energy(sigma->0) =      -24.05535171


--------------------------------------------------------------------------------------------------------




--------------------------------------- Iteration      1(   8)  ---------------------------------------


    POTLOK:  cpu time    2.2069: real time    2.2122
    SETDIJ:  cpu time    0.0075: real time    0.0075
     EDDAV:  cpu time    1.0440: real time    1.0465
       DOS:  cpu time    0.0001: real time    0.0001
    CHARGE:  cpu time    0.1368: real time    0.1371
    MIXING:  cpu time    0.0472: real time    0.0473
    --------------------------------------------
      LOOP:  cpu time    3.4426: real time    3.4507

 eigenvalue-minimisations  :    24
 total energy-change (2. order) : 0.1571694E+00  (-0.1603580E-01)
 number of electron       8.0000002 magnetization 
 augmentation part        0.1824765 magnetization 

 Broyden mixing:
  rms(total) = 0.27390E-01    rms(broyden)= 0.27368E-01
  rms(prec ) = 0.55819E-01
  weight for this iteration     100.00

 eigenvalues of (default mixing * dielectric matrix)
  average eigenvalue GAMMA=   1.5379
  2.2113  1.0394  1.3630

 Free energy of the ion-electron system (eV)
  ---------------------------------------------------
  alpha Z        PSCENC =         0.22298748
  Ewald energy   TEWEN  =       129.13202942
  -Hartree energ DENC   =      -281.19733443
  -exchange      EXHF   =         0.00000000
  -V(xc)+E(xc)   XCENC  =        24.41700141
  PAW double counting   =       453.54276857     -454.32588084
  entropy T*S    EENTRO =        -0.00000000
  eigenvalues    EBANDS =       -92.73150841
  atomic energy  EATOM  =       197.04175453
  Solvation  Ediel_sol  =         0.00000000
  ---------------------------------------------------
  free energy    TOTEN  =       -23.89818228 eV

  energy without entropy =      -23.89818228  energy(sigma->0) =      -23.89818228


--------------------------------------------------------------------------------------------------------




--------------------------------------- Iteration      1(   9)  ---------------------------------------


    POTLOK:  cpu time    2.2187: real time    2.2240
    SETDIJ:  cpu time    0.0075: real time    0.0075
     EDDAV:  cpu time    1.3113: real time    1.3144
       DOS:  cpu time    0.0001: real time    0.0001
    CHARGE:  cpu time    0.1478: real time    0.1481
    MIXING:  cpu time    0.0483: real time    0.0484
    --------------------------------------------
      LOOP:  cpu time    3.7337: real time    3.7425

 eigenvalue-minimisations  :    32
 total energy-change (2. order) : 0.9116815E-02  (-0.4277851E-03)
 number of electron       8.0000002 magnetization 
 augmentation part        0.1820631 magnetization 

 Broyden mixing:
  rms(total) = 0.18208E-01    rms(broyden)= 0.18204E-01
  rms(prec ) = 0.37707E-01
  weight for this iteration     100.00

 eigenvalues of (default mixing * dielectric matrix)
  average eigenvalue GAMMA=   1.8947
  2.9835  2.4334  0.9566  1.2056

 Free energy of the ion-electron system (eV)
  ---------------------------------------------------
  alpha Z        PSCENC =         0.22298748
  Ewald energy   TEWEN  =       129.13202942
  -Hartree energ DENC   =      -282.64148477
  -exchange      EXHF   =         0.00000000
  -V(xc)+E(xc)   XCENC  =        24.51026653
  PAW double counting   =       458.78870446     -459.56814262
  entropy T*S    EENTRO =        -0.00000000
  eigenvalues    EBANDS =       -91.37518050
  atomic energy  EATOM  =       197.04175453
  Solvation  Ediel_sol  =         0.00000000
  ---------------------------------------------------
  free energy    TOTEN  =       -23.88906547 eV

  energy without entropy =      -23.88906547  energy(sigma->0) =      -23.88906547


--------------------------------------------------------------------------------------------------------




--------------------------------------- Iteration      1(  10)  ---------------------------------------


    POTLOK:  cpu time    2.1616: real time    2.1667
    SETDIJ:  cpu time    0.0076: real time    0.0077
     EDDAV:  cpu time    0.7348: real time    0.7366
       DOS:  cpu time    0.0001: real time    0.0001
    CHARGE:  cpu time    0.1490: real time    0.1494
    MIXING:  cpu time    0.0509: real time    0.0510
    --------------------------------------------
      LOOP:  cpu time    3.1040: real time    3.1114

 eigenvalue-minimisations  :    16
 total energy-change (2. order) : 0.9511680E-02  (-0.6359787E-03)
 number of electron       8.0000002 magnetization 
 augmentation part        0.1818429 magnetization 

 Broyden mixing:
  rms(total) = 0.68757E-02    rms(broyden)= 0.68743E-02
  rms(prec ) = 0.16141E-01
  weight for this iteration     100.00

 eigenvalues of (default mixing * dielectric matrix)
  average eigenvalue GAMMA=   1.8055
  3.0223  2.3504  0.9750  1.1972  1.4824

 Free energy of the ion-electron system (eV)
  ---------------------------------------------------
  alpha Z        PSCENC =         0.22298748
  Ewald energy   TEWEN  =       129.13202942
  -Hartree energ DENC   =      -284.33935496
  -exchange      EXHF   =         0.00000000
  -V(xc)+E(xc)   XCENC  =        24.58226561
  PAW double counting   =       448.53948671     -449.31507505
  entropy T*S    EENTRO =        -0.00000000
  eigenvalues    EBANDS =       -89.74364754
  atomic energy  EATOM  =       197.04175453
  Solvation  Ediel_sol  =         0.00000000
  ---------------------------------------------------
  free energy    TOTEN  =       -23.87955379 eV

  energy without entropy =      -23.87955379  energy(sigma->0) =      -23.87955379


--------------------------------------------------------------------------------------------------------




--------------------------------------- Iteration      1(  11)  ---------------------------------------


    POTLOK:  cpu time    2.1059: real time    2.1109
    SETDIJ:  cpu time    0.0075: real time    0.0076
     EDDAV:  cpu time    0.7246: real time    0.7263
       DOS:  cpu time    0.0001: real time    0.0001
    CHARGE:  cpu time    0.1595: real time    0.1599
    MIXING:  cpu time    0.0544: real time    0.0546
    --------------------------------------------
      LOOP:  cpu time    3.0520: real time    3.0593

 eigenvalue-minimisations  :    16
 total energy-change (2. order) :-0.6246338E-02  (-0.2276671E-03)
 number of electron       8.0000002 magnetization 
 augmentation part        0.1814875 magnetization 

 Broyden mixing:
  rms(total) = 0.42564E-02    rms(broyden)= 0.42557E-02
  rms(prec ) = 0.99823E-02
  weight for this iteration     100.00

 eigenvalues of (default mixing * dielectric matrix)
  average eigenvalue GAMMA=   2.0988
  4.3335  2.8429  2.1933  1.2523  0.9855  0.9855

 Free energy of the ion-electron system (eV)
  ---------------------------------------------------
  alpha Z        PSCENC =         0.22298748
  Ewald energy   TEWEN  =       129.13202942
  -Hartree energ DENC   =      -284.99678095
  -exchange      EXHF   =         0.00000000
  -V(xc)+E(xc)   XCENC  =        24.60632426
  PAW double counting   =       449.98840574     -450.76575429
  entropy T*S    EENTRO =        -0.00000000
  eigenvalues    EBANDS =       -89.11476632
  atomic energy  EATOM  =       197.04175453
  Solvation  Ediel_sol  =         0.00000000
  ---------------------------------------------------
  free energy    TOTEN  =       -23.88580013 eV

  energy without entropy =      -23.88580013  energy(sigma->0) =      -23.88580013


--------------------------------------------------------------------------------------------------------




--------------------------------------- Iteration      1(  12)  ---------------------------------------


    POTLOK:  cpu time    2.0394: real time    2.0444
    SETDIJ:  cpu time    0.0073: real time    0.0073
     EDDAV:  cpu time    0.7037: real time    0.7054
       DOS:  cpu time    0.0002: real time    0.0002
    CHARGE:  cpu time    0.1687: real time    0.1691
    MIXING:  cpu time    0.0552: real time    0.0554
    --------------------------------------------
      LOOP:  cpu time    2.9744: real time    2.9816

 eigenvalue-minimisations  :    16
 total energy-change (2. order) :-0.4812856E-02  (-0.7056191E-04)
 number of electron       8.0000002 magnetization 
 augmentation part        0.1815562 magnetization 

 Broyden mixing:
  rms(total) = 0.27714E-02    rms(broyden)= 0.27714E-02
  rms(prec ) = 0.54791E-02
  weight for this iteration     100.00

 eigenvalues of (default mixing * dielectric matrix)
  average eigenvalue GAMMA=   2.1647
  4.6828  3.0109  2.4956  1.7257  0.9820  1.0177  1.2382

 Free energy of the ion-electron system (eV)
  ---------------------------------------------------
  alpha Z        PSCENC =         0.22298748
  Ewald energy   TEWEN  =       129.13202942
  -Hartree energ DENC   =      -285.01121401
  -exchange      EXHF   =         0.00000000
  -V(xc)+E(xc)   XCENC  =        24.59133162
  PAW double counting   =       447.16093367     -447.93787436
  entropy T*S    EENTRO =        -0.00000000
  eigenvalues    EBANDS =       -89.09056133
  atomic energy  EATOM  =       197.04175453
  Solvation  Ediel_sol  =         0.00000000
  ---------------------------------------------------
  free energy    TOTEN  =       -23.89061298 eV

  energy without entropy =      -23.89061298  energy(sigma->0) =      -23.89061298


--------------------------------------------------------------------------------------------------------




--------------------------------------- Iteration      1(  13)  ---------------------------------------


    POTLOK:  cpu time    1.9484: real time    1.9530
    SETDIJ:  cpu time    0.0075: real time    0.0081
     EDDAV:  cpu time    1.2580: real time    1.2611
       DOS:  cpu time    0.0001: real time    0.0001
    CHARGE:  cpu time    0.1376: real time    0.1379
    MIXING:  cpu time    0.0522: real time    0.0523
    --------------------------------------------
      LOOP:  cpu time    3.4038: real time    3.4125

 eigenvalue-minimisations  :    32
 total energy-change (2. order) :-0.3771628E-02  (-0.8686652E-04)
 number of electron       8.0000002 magnetization 
 augmentation part        0.1815683 magnetization 

 Broyden mixing:
  rms(total) = 0.34191E-02    rms(broyden)= 0.34185E-02
  rms(prec ) = 0.45044E-02
  weight for this iteration     100.00

 eigenvalues of (default mixing * dielectric matrix)
  average eigenvalue GAMMA=   2.2889
  5.8536  3.5413  2.4974  2.2206  1.2864  1.0084  1.0084  0.8951

 Free energy of the ion-electron system (eV)
  ---------------------------------------------------
  alpha Z        PSCENC =         0.22298748
  Ewald energy   TEWEN  =       129.13202942
  -Hartree energ DENC   =      -285.10474747
  -exchange      EXHF   =         0.00000000
  -V(xc)+E(xc)   XCENC  =        24.59401366
  PAW double counting   =       449.58630807     -450.36222036
  entropy T*S    EENTRO =        -0.00000000
  eigenvalues    EBANDS =       -89.00450994
  atomic energy  EATOM  =       197.04175453
  Solvation  Ediel_sol  =         0.00000000
  ---------------------------------------------------
  free energy    TOTEN  =       -23.89438461 eV

  energy without entropy =      -23.89438461  energy(sigma->0) =      -23.89438461


--------------------------------------------------------------------------------------------------------




--------------------------------------- Iteration      1(  14)  ---------------------------------------


    POTLOK:  cpu time    1.9062: real time    1.9108
    SETDIJ:  cpu time    0.0068: real time    0.0069
     EDDAV:  cpu time    0.6475: real time    0.6490
       DOS:  cpu time    0.0001: real time    0.0001
    CHARGE:  cpu time    0.1317: real time    0.1320
    MIXING:  cpu time    0.0501: real time    0.0502
    --------------------------------------------
      LOOP:  cpu time    2.7424: real time    2.7490

 eigenvalue-minimisations  :    16
 total energy-change (2. order) :-0.1015435E-02  (-0.1574263E-04)
 number of electron       8.0000002 magnetization 
 augmentation part        0.1815463 magnetization 

 Broyden mixing:
  rms(total) = 0.68089E-03    rms(broyden)= 0.68057E-03
  rms(prec ) = 0.15689E-02
  weight for this iteration     100.00

 eigenvalues of (default mixing * dielectric matrix)
  average eigenvalue GAMMA=   2.5103
  6.8949  4.3861  2.5678  2.3876  2.0846  1.2937  0.9594  1.0095  1.0095

 Free energy of the ion-electron system (eV)
  ---------------------------------------------------
  alpha Z        PSCENC =         0.22298748
  Ewald energy   TEWEN  =       129.13202942
  -Hartree energ DENC   =      -285.07312194
  -exchange      EXHF   =         0.00000000
  -V(xc)+E(xc)   XCENC  =        24.58740121
  PAW double counting   =       448.59396097     -449.37032866
  entropy T*S    EENTRO =        -0.00000000
  eigenvalues    EBANDS =       -89.03008305
  atomic energy  EATOM  =       197.04175453
  Solvation  Ediel_sol  =         0.00000000
  ---------------------------------------------------
  free energy    TOTEN  =       -23.89540005 eV

  energy without entropy =      -23.89540005  energy(sigma->0) =      -23.89540005


--------------------------------------------------------------------------------------------------------




--------------------------------------- Iteration      1(  15)  ---------------------------------------


    POTLOK:  cpu time    1.8336: real time    1.8380
    SETDIJ:  cpu time    0.0069: real time    0.0069
     EDDAV:  cpu time    0.5809: real time    0.5823
       DOS:  cpu time    0.0001: real time    0.0001
    CHARGE:  cpu time    0.1163: real time    0.1166
    MIXING:  cpu time    0.0472: real time    0.0473
    --------------------------------------------
      LOOP:  cpu time    2.5851: real time    2.5913

 eigenvalue-minimisations  :    16
 total energy-change (2. order) :-0.6566104E-03  (-0.7192368E-05)
 number of electron       8.0000002 magnetization 
 augmentation part        0.1815395 magnetization 

 Broyden mixing:
  rms(total) = 0.33638E-03    rms(broyden)= 0.33630E-03
  rms(prec ) = 0.64764E-03
  weight for this iteration     100.00

 eigenvalues of (default mixing * dielectric matrix)
  average eigenvalue GAMMA=   2.5020
  7.4860  4.5168  3.0108  2.4229  2.0218  1.3737  1.0031  1.0031  0.9589  1.2229

 Free energy of the ion-electron system (eV)
  ---------------------------------------------------
  alpha Z        PSCENC =         0.22298748
  Ewald energy   TEWEN  =       129.13202942
  -Hartree energ DENC   =      -285.04782625
  -exchange      EXHF   =         0.00000000
  -V(xc)+E(xc)   XCENC  =        24.58498231
  PAW double counting   =       448.26324422     -449.03966418
  entropy T*S    EENTRO =        -0.00000000
  eigenvalues    EBANDS =       -89.05356418
  atomic energy  EATOM  =       197.04175453
  Solvation  Ediel_sol  =         0.00000000
  ---------------------------------------------------
  free energy    TOTEN  =       -23.89605666 eV

  energy without entropy =      -23.89605666  energy(sigma->0) =      -23.89605666


--------------------------------------------------------------------------------------------------------




--------------------------------------- Iteration      1(  16)  ---------------------------------------


    POTLOK:  cpu time    1.6837: real time    1.6877
    SETDIJ:  cpu time    0.0063: real time    0.0064
     EDDAV:  cpu time    0.9875: real time    0.9898
       DOS:  cpu time    0.0001: real time    0.0001
    CHARGE:  cpu time    0.1092: real time    0.1095
    MIXING:  cpu time    0.0460: real time    0.0461
    --------------------------------------------
      LOOP:  cpu time    2.8327: real time    2.8394

 eigenvalue-minimisations  :    32
 total energy-change (2. order) :-0.1007593E-03  (-0.3185352E-06)
 number of electron       8.0000002 magnetization 
 augmentation part        0.1815375 magnetization 

 Broyden mixing:
  rms(total) = 0.30590E-03    rms(broyden)= 0.30590E-03
  rms(prec ) = 0.40962E-03
  weight for this iteration     100.00

 eigenvalues of (default mixing * dielectric matrix)
  average eigenvalue GAMMA=   2.6605
  8.4208  4.9754  3.5838  2.7114  2.1645  2.1645  1.3061  1.0352  0.9899  0.9899
  0.9240

 Free energy of the ion-electron system (eV)
  ---------------------------------------------------
  alpha Z        PSCENC =         0.22298748
  Ewald energy   TEWEN  =       129.13202942
  -Hartree energ DENC   =      -285.06601562
  -exchange      EXHF   =         0.00000000
  -V(xc)+E(xc)   XCENC  =        24.58585854
  PAW double counting   =       448.15496557     -448.93131989
  entropy T*S    EENTRO =        -0.00000000
  eigenvalues    EBANDS =       -89.03641745
  atomic energy  EATOM  =       197.04175453
  Solvation  Ediel_sol  =         0.00000000
  ---------------------------------------------------
  free energy    TOTEN  =       -23.89615742 eV

  energy without entropy =      -23.89615742  energy(sigma->0) =      -23.89615742


--------------------------------------------------------------------------------------------------------




--------------------------------------- Iteration      1(  17)  ---------------------------------------


    POTLOK:  cpu time    1.6329: real time    1.6368
    SETDIJ:  cpu time    0.0063: real time    0.0063
     EDDAV:  cpu time    0.5391: real time    0.5404
       DOS:  cpu time    0.0001: real time    0.0001
    CHARGE:  cpu time    0.0998: real time    0.1001
    MIXING:  cpu time    0.0449: real time    0.0450
    --------------------------------------------
      LOOP:  cpu time    2.3231: real time    2.3286

 eigenvalue-minimisations  :    16
 total energy-change (2. order) :-0.5582886E-04  (-0.2442129E-06)
 number of electron       8.0000002 magnetization 
 augmentation part        0.1815326 magnetization 

 Broyden mixing:
  rms(total) = 0.11070E-03    rms(broyden)= 0.11069E-03
  rms(prec ) = 0.15238E-03
  weight for this iteration     100.00

 eigenvalues of (default mixing * dielectric matrix)
  average eigenvalue GAMMA=   2.5978
  8.6398  5.2826  3.7430  2.6651  2.3724  1.8657  1.4060  1.2585  1.0184  1.0184
  0.9521  0.9521

 Free energy of the ion-electron system (eV)
  ---------------------------------------------------
  alpha Z        PSCENC =         0.22298748
  Ewald energy   TEWEN  =       129.13202942
  -Hartree energ DENC   =      -285.07170830
  -exchange      EXHF   =         0.00000000
  -V(xc)+E(xc)   XCENC  =        24.58609870
  PAW double counting   =       448.26806152     -449.04446504
  entropy T*S    EENTRO =        -0.00000000
  eigenvalues    EBANDS =       -89.03097156
  atomic energy  EATOM  =       197.04175453
  Solvation  Ediel_sol  =         0.00000000
  ---------------------------------------------------
  free energy    TOTEN  =       -23.89621325 eV

  energy without entropy =      -23.89621325  energy(sigma->0) =      -23.89621325


--------------------------------------------------------------------------------------------------------




--------------------------------------- Iteration      1(  18)  ---------------------------------------


    POTLOK:  cpu time    1.6174: real time    1.6213
    SETDIJ:  cpu time    0.0062: real time    0.0062
     EDDAV:  cpu time    0.9287: real time    0.9309
       DOS:  cpu time    0.0001: real time    0.0001
    CHARGE:  cpu time    0.0976: real time    0.0978
    MIXING:  cpu time    0.0477: real time    0.0478
    --------------------------------------------
      LOOP:  cpu time    2.6977: real time    2.7042

 eigenvalue-minimisations  :    32
 total energy-change (2. order) :-0.4844534E-05  (-0.1753534E-07)
 number of electron       8.0000002 magnetization 
 augmentation part        0.1815351 magnetization 

 Broyden mixing:
  rms(total) = 0.40262E-04    rms(broyden)= 0.40255E-04
  rms(prec ) = 0.70774E-04
  weight for this iteration     100.00

 eigenvalues of (default mixing * dielectric matrix)
  average eigenvalue GAMMA=   2.6392
  8.8021  5.5327  3.7803  3.0741  2.5253  2.2875  1.9114  1.3137  1.1387  1.0068
  1.0068  0.9435  0.9862

 Free energy of the ion-electron system (eV)
  ---------------------------------------------------
  alpha Z        PSCENC =         0.22298748
  Ewald energy   TEWEN  =       129.13202942
  -Hartree energ DENC   =      -285.07199058
  -exchange      EXHF   =         0.00000000
  -V(xc)+E(xc)   XCENC  =        24.58619872
  PAW double counting   =       448.29981490     -449.07619393
  entropy T*S    EENTRO =        -0.00000000
  eigenvalues    EBANDS =       -89.03081863
  atomic energy  EATOM  =       197.04175453
  Solvation  Ediel_sol  =         0.00000000
  ---------------------------------------------------
  free energy    TOTEN  =       -23.89621809 eV

  energy without entropy =      -23.89621809  energy(sigma->0) =      -23.89621809


--------------------------------------------------------------------------------------------------------




--------------------------------------- Iteration      1(  19)  ---------------------------------------


    POTLOK:  cpu time    1.6553: real time    1.6592
    SETDIJ:  cpu time    0.0063: real time    0.0063
     EDDAV:  cpu time    0.5067: real time    0.5079
       DOS:  cpu time    0.0001: real time    0.0001
    CHARGE:  cpu time    0.0948: real time    0.0950
    MIXING:  cpu time    0.0536: real time    0.0537
    --------------------------------------------
      LOOP:  cpu time    2.3167: real time    2.3222

 eigenvalue-minimisations  :    16
 total energy-change (2. order) :-0.5322350E-05  (-0.1856529E-07)
 number of electron       8.0000002 magnetization 
 augmentation part        0.1815358 magnetization 

 Broyden mixing:
  rms(total) = 0.25992E-04    rms(broyden)= 0.25991E-04
  rms(prec ) = 0.37264E-04
  weight for this iteration     100.00

 eigenvalues of (default mixing * dielectric matrix)
  average eigenvalue GAMMA=   2.5731
  8.9161  5.5195  4.1523  3.0047  2.6209  2.3267  1.8674  1.3599  1.2746  0.9346
  0.9978  0.9978  1.0258  1.0258

 Free energy of the ion-electron system (eV)
  ---------------------------------------------------
  alpha Z        PSCENC =         0.22298748
  Ewald energy   TEWEN  =       129.13202942
  -Hartree energ DENC   =      -285.07044658
  -exchange      EXHF   =         0.00000000
  -V(xc)+E(xc)   XCENC  =        24.58606655
  PAW double counting   =       448.32022110     -449.09658721
  entropy T*S    EENTRO =        -0.00000000
  eigenvalues    EBANDS =       -89.03224870
  atomic energy  EATOM  =       197.04175453
  Solvation  Ediel_sol  =         0.00000000
  ---------------------------------------------------
  free energy    TOTEN  =       -23.89622341 eV

  energy without entropy =      -23.89622341  energy(sigma->0) =      -23.89622341


--------------------------------------------------------------------------------------------------------




--------------------------------------- Iteration      1(  20)  ---------------------------------------


    POTLOK:  cpu time    1.6597: real time    1.6637
    SETDIJ:  cpu time    0.0062: real time    0.0062
     EDDAV:  cpu time    0.8890: real time    0.8911
       DOS:  cpu time    0.0001: real time    0.0001
    --------------------------------------------
      LOOP:  cpu time    2.5550: real time    2.5611

 eigenvalue-minimisations  :    32
 total energy-change (2. order) :-0.5757626E-06  (-0.1231061E-08)
 number of electron       8.0000002 magnetization 
 augmentation part        0.1815358 magnetization 

 Free energy of the ion-electron system (eV)
  ---------------------------------------------------
  alpha Z        PSCENC =         0.22298748
  Ewald energy   TEWEN  =       129.13202942
  -Hartree energ DENC   =      -285.07133555
  -exchange      EXHF   =         0.00000000
  -V(xc)+E(xc)   XCENC  =        24.58610358
  PAW double counting   =       448.31040955     -449.08677981
  entropy T*S    EENTRO =        -0.00000000
  eigenvalues    EBANDS =       -89.03139320
  atomic energy  EATOM  =       197.04175453
  Solvation  Ediel_sol  =         0.00000000
  ---------------------------------------------------
  free energy    TOTEN  =       -23.89622399 eV

  energy without entropy =      -23.89622399  energy(sigma->0) =      -23.89622399


--------------------------------------------------------------------------------------------------------




 average (electrostatic) potential at core
  the test charge radii are     0.5201  0.6991
  (the norm of the test charge is              1.0000)
       1 -41.3558       2 -41.6656       3 -41.3299       4 -41.4384       5 -58.0657



 E-fermi :  -8.5723     XC(G=0):  -0.6560     alpha+bet : -0.1939


 k-point     1 :       0.0000    0.0000    0.0000
  band No.  band energies     occupation 
      1     -16.8167      2.00000
      2      -9.8609      2.00000
      3      -8.9885      2.00000
      4      -8.8496      2.00000
      5      -0.5405      0.00000
      6       0.8936      0.00000
      7       0.9410      0.00000
      8       0.9682      0.00000


--------------------------------------------------------------------------------------------------------


 soft charge-density along one line, spin component           1
         0         1         2         3         4         5         6         7         8         9
 total charge-density along one line

 pseudopotential strength for first ion, spin component:           1
 -2.340  -4.031   0.000  -0.002   0.000
 -4.031  -6.860   0.000  -0.005   0.000
  0.000   0.000  -0.340  -0.000   0.000
 -0.002  -0.005  -0.000  -0.335  -0.000
  0.000   0.000   0.000  -0.000  -0.340
 total augmentation occupancy for first ion, spin component:           1
  3.482  -0.629  -0.017   0.410  -0.008
 -0.629   0.128   0.003  -0.076   0.001
 -0.017   0.003   0.009  -0.002  -0.000
  0.410  -0.076  -0.002   0.049  -0.001
 -0.008   0.001  -0.000  -0.001   0.008


------------------------ aborting loop because EDIFF is reached ----------------------------------------


    CHARGE:  cpu time    0.0934: real time    0.0936
    FORLOC:  cpu time    0.1144: real time    0.1147
    FORNL :  cpu time    0.1678: real time    0.1682
    STRESS:  cpu time    0.5771: real time    0.5784
    FORCOR:  cpu time    1.6013: real time    1.6051
    FORHAR:  cpu time    0.6043: real time    0.6058
    MIXING:  cpu time    0.0532: real time    0.0533
    OFIELD:  cpu time    0.0000: real time    0.0000

  FORCE on cell =-STRESS in cart. coord.  units (eV):
  Direction    XX          YY          ZZ          XY          YZ          ZX
  --------------------------------------------------------------------------------------
  Alpha Z     0.22299     0.22299     0.22299
  Ewald      50.86379    40.65105    37.61715     8.45221    -3.50860    -5.53887
  Hartree    97.46745    95.39796    92.20573     2.10219    -0.80898    -1.52870
  E(xc)     -26.99122   -27.07195   -27.05752     0.04253    -0.01376    -0.03107
  Local    -206.12440  -195.44384  -189.36719    -8.93233     3.54714     6.09317
  n-local   -15.46242   -15.63677   -15.58290     0.04096     0.02493     0.02261
  augment     0.11460     0.12269     0.12521    -0.01147     0.00606     0.00685
  Kinetic    97.67728   101.89562   100.99746    -2.21530     0.68000     1.39503
  Fock        0.00000     0.00000     0.00000     0.00000     0.00000     0.00000
  -------------------------------------------------------------------------------------
  Total      -2.23194     0.13776    -0.83907    -0.52121    -0.07320     0.41902
  in kB      -3.29161     0.20316    -1.23744    -0.76867    -0.10796     0.61796
  external pressure =       -1.44 kB  Pullay stress =        0.00 kB


 VOLUME and BASIS-vectors are now :
 -----------------------------------------------------------------------------
  energy-cutoff  :      400.00
  volume of cell :     1086.39
      direct lattice vectors                 reciprocal lattice vectors
    10.294488900  0.000000000  0.000000000     0.097139354 -0.000000700 -0.000613193
     0.000072740 10.100153900  0.000000000    -0.000000000  0.099008392  0.000976980
     0.065955200 -0.103101700 10.448452000     0.000000000  0.000000000  0.095707958

  length of vectors
    10.294488900 10.100153900 10.449168830     0.097141289  0.099013212  0.095707958


 FORCES acting on ions
    electron-ion (+dipol)            ewald-force                    non-local-force                 convergence-correction
 -----------------------------------------------------------------------------------------------
   -.134E+01 -.193E+01 0.519E+02   0.128E+01 0.198E+01 -.567E+02   -.126E+00 -.246E+00 0.523E+01   -.163E-05 -.110E-04 0.455E-05
   0.148E+02 0.482E+02 -.169E+02   -.159E+02 -.538E+02 0.187E+02   0.181E+01 0.507E+01 -.178E+01   0.133E-04 0.277E-04 0.666E-06
   0.398E+02 -.286E+02 -.163E+02   -.431E+02 0.316E+02 0.177E+02   0.406E+01 -.271E+01 -.159E+01   0.119E-04 -.165E-04 0.645E-05
   -.458E+02 -.176E+02 -.151E+02   0.495E+02 0.190E+02 0.167E+02   -.461E+01 -.184E+01 -.138E+01   -.237E-04 -.228E-04 0.675E-05
   -.760E+01 -.906E+00 -.355E+01   0.818E+01 0.134E+01 0.356E+01   -.982E+00 0.654E+00 -.597E+00   0.134E-04 -.297E-04 0.519E-04
 -----------------------------------------------------------------------------------------------
   -.155E+00 -.928E+00 0.110E+00   0.000E+00 0.000E+00 -.711E-14   0.154E+00 0.929E+00 -.110E+00   0.133E-04 -.524E-04 0.703E-04


 POSITION                                       TOTAL-FORCE (eV/Angst)
 -----------------------------------------------------------------------------------
      5.24013      4.71312      3.54366        -0.182632     -0.196171      0.452295
      4.90662      3.68760      4.99720         0.682911     -0.602440      0.074019
      4.35087      5.28556      5.00400         0.833214      0.228021     -0.201422
      6.22231      5.06017      4.98274        -0.927041     -0.514433      0.262132
      5.22041      4.66974      4.65706        -0.406453      1.085022     -0.587024
 -----------------------------------------------------------------------------------
    total drift:                               -0.000337      0.000907     -0.000082


--------------------------------------------------------------------------------------------------------



  FREE ENERGIE OF THE ION-ELECTRON SYSTEM (eV)
  ---------------------------------------------------
  free  energy   TOTEN  =       -23.89622399 eV

  energy  without entropy=      -23.89622399  energy(sigma->0) =      -23.89622399



--------------------------------------------------------------------------------------------------------


    POTLOK:  cpu time    1.7747: real time    1.7789


--------------------------------------------------------------------------------------------------------


     LOOP+:  cpu time   57.7683: real time   57.9593
    4ORBIT:  cpu time    0.0000: real time    0.0000

 total amount of memory used by VASP MPI-rank0   297513. kBytes
=======================================================================

   base      :      30000. kBytes
   nonlr-proj:       1243. kBytes
   fftplans  :      94700. kBytes
   grid      :     169030. kBytes
   one-center:         15. kBytes
   wavefun   :       2525. kBytes

  
  
 General timing and accounting informations for this job:
 ========================================================
  
                  Total CPU time used (sec):       59.990
                            User time (sec):       58.386
                          System time (sec):        1.604
                         Elapsed time (sec):       60.206
  
                   Maximum memory used (kb):      425468.
                   Average memory used (kb):           0.
  
                          Minor page faults:       202615
                          Major page faults:            0
                 Voluntary context switches:          135
