
2 atoms
1 atom types
   0.0000000000    3.1623672675 xlo xhi
   0.0000000000    3.1623672675 ylo yhi
   0.0000000000    3.1623672675 zlo zhi
   0.0000000000    0.0000000000    0.0000000000 xy xz yz

Atoms # atomic

     1      1    0.0000000000    0.0000000000    0.0000000000
     2      1    1.5811836338    1.5811836338    1.5811836338
