1.819300000000000084e-02 5.561200000000000171e-02 -6.813500000000000112e-02 9.474799999999999889e-02 -4.057999999999999802e-02 2.514629999999999921e-01 -5.592500000000000249e-02 -9.039899999999999325e-02 -1.770829999999999904e-01 -5.701300000000000118e-02 7.537199999999999456e-02 -6.220999999999999967e-03
-3.089400000000000132e-02 2.060299999999999979e-02 -1.883599999999999858e-02 3.208099999999999841e-02 1.444499999999999951e-02 2.208799999999999999e-02 8.970000000000000109e-04 -6.878000000000000433e-03 -7.301000000000000198e-03 -2.079999999999999818e-03 -2.817400000000000113e-02 4.052000000000000046e-03
-3.911699999999999899e-02 -5.074599999999999944e-02 -5.824000000000000184e-03 -3.089000000000000166e-03 1.453000000000000081e-03 -1.977399999999999991e-02 -2.045999999999999902e-02 3.680499999999999744e-02 3.789000000000000007e-02 6.267899999999999860e-02 1.248299999999999930e-02 -1.228100000000000025e-02
