1.101213331158854974e-01 -2.212408056542556831e-02 2.139757112116089655e-01 -2.212408056542556831e-02 -2.960263025228807021e-01 1.642694956041476917e-01 2.139757112116089655e-01 1.642694956041476917e-01 1.025752548928560021e-01
-3.214604413715990372e+00 -1.986021051318622443e-01 1.165350365617875694e-01 -1.986021051318622443e-01 -3.334183153785495346e+00 -6.194170161787661104e-03 1.165350365617875694e-01 -6.194170161787661104e-03 -3.422123396866884715e+00
-1.919245835289263846e+00 1.788833109485817030e-01 2.749488668747926412e-01 1.788833109485817030e-01 -2.089915665780424092e+00 2.282906165505053930e-01 2.749488668747926412e-01 2.282906165505053930e-01 -1.848234393578201074e+00
