LAMMPS (16 Mar 2018)
clear
units 	metal
dimension	3
boundary	p	p    p
atom_style	atomic
box         tilt large
read_data   conf.lmp
  triclinic box = (0 0 0) to (2.5701 2.1808 2.09848) with tilt (1.28505 1.28505 0.726934)
  1 by 1 by 1 MPI processor grid
  reading atoms ...
  1 atoms
mass            1 1
neigh_modify    every 1 delay 0 check no
pair_style deepmd frozen_model.pb
pair_coeff
compute         mype all pe
thermo          100
thermo_style    custom step pe pxx pyy pzz pxy pxz pyz lx ly lz vol c_mype
dump            1 all custom 100 dump.relax id type xs ys zs fx fy fz
min_style       cg
minimize        1.000000e-12 1.000000e-06 5000 500000
WARNING: Using 'neigh_modify every 1 delay 0 check yes' setting during minimization (../min.cpp:168)
Neighbor list info ...
  update every 1 steps, delay 0 steps, check yes
  max neighbors/atom: 2000, page size: 100000
  master list distance cutoff = 10
  ghost atom cutoff = 10
  binsize = 5, bins = 2 1 1
  1 neighbor lists, perpetual/occasional/extra = 1 0 0
  (1) pair deepmd, perpetual
      attributes: , newton on
      pair build: full/bin/atomonly
      stencil: full/bin/3d
      bin: standard
Per MPI rank memory allocation (min/avg/max) = 5.171 | 5.171 | 5.171 Mbytes
Step PotEng Pxx Pyy Pzz Pxy Pxz Pyz Lx Ly Lz Volume c_mype 
       0   -3.7235568    23154.929    48656.138    18491.869 -1.3349452e-12 -8.3144604e-12   -4929.0481       2.5701     2.180802     2.098478    11.761716   -3.7235568 
       1   -3.7235568    23154.929    48656.138    18491.869 -3.0156007e-11 8.5261482e-12   -4929.0481       2.5701     2.180802     2.098478    11.761716   -3.7235568 
Loop time of 0.0149763 on 1 procs for 1 steps with 1 atoms

258.0% CPU use with 1 MPI tasks x no OpenMP threads

Minimization stats:
  Stopping criterion = quadratic factors are zero
  Energy initial, next-to-last, final = 
        -3.72355676532     -3.72355676532     -3.72355676532
  Force two-norm initial, final = 1.09714e-17 1.35486e-17
  Force max component initial, final = 1.04083e-17 1.04083e-17
  Final line search alpha, max atom move = 1 1.04083e-17
  Iterations, force evaluations = 1 2

MPI task timing breakdown:
Section |  min time  |  avg time  |  max time  |%varavg| %total
---------------------------------------------------------------
Pair    | 0.014807   | 0.014807   | 0.014807   |   0.0 | 98.87
Neigh   | 0          | 0          | 0          |   0.0 |  0.00
Comm    | 3.6716e-05 | 3.6716e-05 | 3.6716e-05 |   0.0 |  0.25
Output  | 0          | 0          | 0          |   0.0 |  0.00
Modify  | 0          | 0          | 0          |   0.0 |  0.00
Other   |            | 0.0001321  |            |       |  0.88

Nlocal:    1 ave 1 max 1 min
Histogram: 1 0 0 0 0 0 0 0 0 0
Nghost:    999 ave 999 max 999 min
Histogram: 1 0 0 0 0 0 0 0 0 0
Neighs:    0 ave 0 max 0 min
Histogram: 1 0 0 0 0 0 0 0 0 0

Total # of neighbors = 0
Ave neighs/atom = 0
Neighbor list builds = 0
Dangerous builds not checked
variable        N equal count(all)
variable        V equal vol
variable        E equal "c_mype"
variable        Pxx equal pxx
variable        Pyy equal pyy
variable        Pzz equal pzz
variable        Pxy equal pxy
variable        Pxz equal pxz
variable        Pyz equal pyz
variable        Epa equal ${E}/${N}
variable        Epa equal -3.7235567653248/${N}
variable        Epa equal -3.7235567653248/1
variable        Vpa equal ${V}/${N}
variable        Vpa equal 11.7617157362469/${N}
variable        Vpa equal 11.7617157362469/1
print "All done"
All done
print "Total number of atoms = ${N}"
Total number of atoms = 1
print "Final energy per atoms = ${Epa}"
Final energy per atoms = -3.7235567653248
print "Final volume per atoms = ${Vpa}"
Final volume per atoms = 11.7617157362469
print "Final Stress (xx yy zz xy xz yz) = ${Pxx} ${Pyy} ${Pzz} ${Pxy} ${Pxz} ${Pyz}"
Final Stress (xx yy zz xy xz yz) = 23154.9294080874 48656.1378352834 18491.8689951037 -3.01560071323963e-11 8.52614821621066e-12 -4929.04805770053
Total wall time: 0:00:01
