-3.025121757338064981e+03
-3.025038508210764576e+03
