5.909909999999999997e+01 6.207500000000000284e+01 2.113240000000000052e+01 5.816870000000000118e+01 6.030299999999999727e+01 2.060279999999999845e+01 5.761959999999999837e+01 6.224869999999999948e+01 2.083279999999999887e+01 5.804169999999999874e+01 6.076899999999999835e+01 2.230260000000000176e+01 5.830030000000000001e+01 6.128649999999999665e+01 2.125120000000000076e+01 6.132809999999999917e+01 5.936110000000000042e+01 2.122700000000000031e+01 6.091949999999999932e+01 6.013470000000000226e+01 2.048329999999999984e+01
5.019210000000000349e+01 1.057729999999999961e+02 1.034180000000000064e+02 4.959720000000000084e+01 1.049110000000000014e+02 1.019629999999999939e+02 5.162919999999999732e+01 1.057429999999999950e+02 1.020349999999999966e+02 5.049060000000000059e+01 1.068730000000000047e+02 1.018599999999999994e+02 5.047339999999999804e+01 1.058349999999999937e+02 1.023760000000000048e+02 4.914509999999999934e+01 1.031869999999999976e+02 1.055199999999999960e+02 5.002700000000000102e+01 1.034330000000000069e+02 1.048799999999999955e+02
