-4.081290376815691161e+03
-4.081469950195805723e+03
