8.747889723170062526e-01 -2.423600613078346289e+00 6.472041062168657488e-01 9.197891948965511988e-01 2.723321589563896250e+00 3.823386011508613791e-01 -1.590595104487835809e-01 -3.278062647810230157e+00 1.387297806453978932e+00 6.390153990815982121e-01 2.396869159833182827e+00 -1.866855071219716944e+00 -2.511607990324121076e+00 6.888234307039772242e-01 -4.882284651601360159e-01 -2.020664902799842455e+00 3.807276043411022659e+00 -3.646909229740788572e+00 2.257738785855524011e+00 -3.914626962623501960e+00 3.585152252298935416e+00
8.765948639047073110e-01 7.420539094493106003e-01 4.448391416884219240e-01 3.130476017680225098e+00 3.074834718145399215e+00 2.683911048563162871e-01 -2.485745107220700412e+00 -1.438280523785786968e+00 1.502076437625143868e+00 -1.804233894511857006e+00 -1.395850787515248825e+00 1.082434006155986728e+00 2.899227586382733812e-01 -9.535909767314392216e-01 -3.327002057868799323e+00 1.358220478490545613e+00 3.766529145720714511e-01 -9.860501798065879342e-01 -1.365235116981193819e+00 -4.058193055563736884e-01 1.015311495927451624e+00
