9.266330000000000666e+01 1.285920000000000130e+02 6.544039999999999679e+01 9.258520000000000039e+01 1.295289999999999964e+02 6.402649999999999864e+01 9.352920000000000300e+01 1.279599999999999937e+02 6.368480000000000274e+01 9.525579999999999359e+01 1.294739999999999895e+02 6.531539999999999679e+01 9.322910000000000252e+01 1.286490000000000009e+02 6.440810000000000457e+01
1.102259999999999991e+02 5.327890000000000015e+01 1.217390000000000043e+02 1.101590000000000060e+02 5.310869999999999891e+01 1.199360000000000070e+02 1.112890000000000015e+02 5.397030000000000172e+01 1.204210000000000065e+02 1.120729999999999933e+02 5.062069999999999936e+01 1.212519999999999953e+02 1.106620000000000061e+02 5.317920000000000158e+01 1.207800000000000011e+02
7.394440000000000168e+01 1.271809999999999974e+02 8.237080000000000268e+01 7.430970000000000653e+01 1.248859999999999957e+02 8.226409999999999911e+01 7.375520000000000209e+01 1.263790000000000049e+02 8.081040000000000134e+01 7.566070000000000562e+01 1.267860000000000014e+02 8.130429999999999779e+01 7.424460000000000548e+01 1.259669999999999987e+02 8.179370000000000118e+01
5.393220000000000169e+01 9.574399999999999578e-01 5.718419999999999703e+01 5.318939999999999912e+01 1.620610000000000106e+00 5.854959999999999809e+01 5.328750000000000142e+01 2.318869999999999987e+00 5.641910000000000025e+01 5.432939999999999969e+01 3.144709999999999894e+00 5.801469999999999771e+01 5.387660000000000338e+01 2.108620000000000161e+00 5.731349999999999767e+01
4.476709999999999745e+00 2.795850000000000080e+01 5.248729999999999762e+01 3.730469999999999953e+00 2.746580000000000155e+01 5.413929999999999865e+01 2.482009999999999827e+00 2.749210000000000065e+01 5.222480000000000189e+01 3.179539999999999811e+00 2.883220000000000027e+01 5.308930000000000149e+01 3.471680000000000099e+00 2.775150000000000006e+01 5.295669999999999789e+01
