-1.097353668926039063e+03
-1.096082831676938895e+03
-1.098385701484863375e+03
-1.099091229183471569e+03
-1.101358684969505020e+03
