1.918758449247621289e+00 -1.384425883985425987e+00 -1.921543931220746293e+00 1.870883475985812394e+00 -9.836480493464988539e-01 -2.555647957215613220e-01 5.469227956851664407e-01 -1.486278704321269295e+00 -4.639885139283358439e-01 -2.312651229005940667e+00 -8.478788273873627546e-01 -1.154373787087771497e+00 -2.023913440490591853e+00 4.702231465040556557e+00 3.795471079380482671e+00
-3.246186673824398294e-01 -3.568305817350949094e-01 7.748372772378301354e-01 -3.507183439643821732e+00 -2.070517620198858655e+00 -3.599873773152597600e+00 1.701304193238924345e+00 3.799862472520893486e-01 1.039662981623607818e+00 -7.234765048659359543e-01 1.400802115548409166e+00 -3.035092916185983536e-01 2.853974418653272505e+00 6.465598391334549389e-01 2.088882857331825882e+00
7.644302221116339169e-01 -4.591740920076243349e+00 -3.884843609673618858e-01 -1.614196805018119907e-01 2.780178815306267204e+00 -1.107461229240849443e+00 5.633036038121549405e-01 -2.529529763547172738e+00 1.525148696548691563e+00 -2.904828066595715352e+00 -2.712965647972771066e+00 1.366299553777953646e+00 1.738513921173738375e+00 7.054057567711986998e+00 -1.395502660118433935e+00
2.592534394612203918e+00 1.917155417716114529e+00 3.033769312169142807e-01 3.926371557146825508e-01 1.935011833491403710e+00 -3.444675751438881495e+00 -7.470688980020068204e-01 1.016527216446726722e+00 7.351328591214695285e-01 -2.664050303441781176e-01 -3.946982704498888328e+00 -2.914013796197281181e+00 -1.971697621980701420e+00 -9.217117631553559676e-01 5.320179757297779588e+00
-1.114706290015858858e+00 -1.156428047261383263e+00 -2.328496116345691036e-01 -1.452884236682861152e+00 -2.406705995653134478e-01 -3.411822758170998782e+00 3.209261772721335948e+00 -5.825852850316853848e-01 2.351607713150858370e+00 1.425806404391177507e-01 -5.268271031374857083e-01 2.759398129397734323e-01 -7.842519378838007649e-01 2.506511086417935630e+00 1.017124843714936722e+00
