 vasp.5.4.4.18Apr17-6-g9f103f2a35 (build Jul 12 2018 13:43:46) complex           
 executed on             LinuxGNU date 2019.06.24  12:44:29
 running on    1 total cores
 distrk:  each k-point on    1 cores,    1 groups
 distr:  one band on NCORES_PER_BAND=   1 cores,    1 groups


--------------------------------------------------------------------------------------------------------


 INCAR:
 POTCAR:    PAW_PBE H 15Jun2001                   
 POTCAR:    PAW_PBE C 08Apr2002                   
 POTCAR:    PAW_PBE H 15Jun2001                   
   VRHFIN =H: ultrasoft test                                                    
   LEXCH  = PE                                                                  
   EATOM  =    12.4884 eV,    0.9179 Ry                                         
                                                                                
   TITEL  = PAW_PBE H 15Jun2001                                                 
   LULTRA =        F    use ultrasoft PP ?                                      
   IUNSCR =        0    unscreen: 0-lin 1-nonlin 2-no                           
   RPACOR =    0.000    partial core radius                                     
   POMASS =    1.000; ZVAL   =    1.000    mass and valenz                      
   RCORE  =    1.100    outmost cutoff radius                                   
   RWIGS  =    0.700; RWIGS  =    0.370    wigner-seitz radius (au A)           
   ENMAX  =  250.000; ENMIN  =  200.000 eV                                      
   RCLOC  =    0.701    cutoff for local pot                                    
   LCOR   =        T    correct aug charges                                     
   LPAW   =        T    paw PP                                                  
   EAUG   =  400.000                                                            
   RMAX   =    1.123    core radius for proj-oper                               
   RAUG   =    1.200    factor for augmentation sphere                          
   RDEP   =    1.112    radius for radial grids                                 
   RDEPT  =    0.926    core radius for aug-charge                              
                                                                                
   Atomic configuration                                                         
    2 entries                                                                   
     n  l   j            E        occ.                                          
     1  0  0.50        -6.4927   1.0000                                         
     2  1  0.50        -3.4015   0.0000                                         
   Description                                                                  
     l       E           TYP  RCUT    TYP  RCUT                                 
     0     -6.4927494     23  1.100                                             
     0      6.8029130     23  1.100                                             
     1     -4.0817478     23  1.100                                             
  local pseudopotential read in
  atomic valenz-charges read in
  non local Contribution for L=           0  read in
    real space projection operators read in
  non local Contribution for L=           0  read in
    real space projection operators read in
  non local Contribution for L=           1  read in
    real space projection operators read in
    PAW grid and wavefunctions read in

   number of l-projection  operators is LMAX  =           3
   number of lm-projection operators is LMMAX =           5

 POTCAR:    PAW_PBE C 08Apr2002                   
   VRHFIN =C: s2p2                                                              
   LEXCH  = PE                                                                  
   EATOM  =   147.1560 eV,   10.8157 Ry                                         
                                                                                
   TITEL  = PAW_PBE C 08Apr2002                                                 
   LULTRA =        F    use ultrasoft PP ?                                      
   IUNSCR =        1    unscreen: 0-lin 1-nonlin 2-no                           
   RPACOR =    1.200    partial core radius                                     
   POMASS =   12.011; ZVAL   =    4.000    mass and valenz                      
   RCORE  =    1.500    outmost cutoff radius                                   
   RWIGS  =    1.630; RWIGS  =    0.863    wigner-seitz radius (au A)           
   ENMAX  =  400.000; ENMIN  =  300.000 eV                                      
   ICORE  =        2    local potential                                         
   LCOR   =        T    correct aug charges                                     
   LPAW   =        T    paw PP                                                  
   EAUG   =  644.873                                                            
   DEXC   =    0.000                                                            
   RMAX   =    1.529    core radius for proj-oper                               
   RAUG   =    1.300    factor for augmentation sphere                          
   RDEP   =    1.501    radius for radial grids                                 
   RDEPT  =    1.300    core radius for aug-charge                              
                                                                                
   Atomic configuration                                                         
    4 entries                                                                   
     n  l   j            E        occ.                                          
     1  0  0.50      -273.3789   2.0000                                         
     2  0  0.50       -13.7508   2.0000                                         
     2  1  0.50        -5.2854   2.0000                                         
     3  2  1.50        -5.4423   0.0000                                         
   Description                                                                  
     l       E           TYP  RCUT    TYP  RCUT                                 
     0    -13.7508458     23  1.200                                             
     0     -8.2022199     23  1.200                                             
     1     -5.2854383     23  1.500                                             
     1     34.0145650     23  1.500                                             
     2     -5.4423304      7  1.500                                             
  local pseudopotential read in
  partial core-charges read in
  partial kinetic energy density read in
  atomic valenz-charges read in
  non local Contribution for L=           0  read in
    real space projection operators read in
  non local Contribution for L=           0  read in
    real space projection operators read in
  non local Contribution for L=           1  read in
    real space projection operators read in
  non local Contribution for L=           1  read in
    real space projection operators read in
    PAW grid and wavefunctions read in

   number of l-projection  operators is LMAX  =           4
   number of lm-projection operators is LMMAX =           8


 ----------------------------------------------------------------------------- 
|                                                                             |
|  ADVICE TO THIS USER RUNNING 'VASP/VAMP'   (HEAR YOUR MASTER'S VOICE ...):  |
|                                                                             |
|      You have a (more or less) 'small supercell' and for smaller cells      |
|      it is recommended  to use the reciprocal-space projection scheme!      |
|      The real space optimization is not  efficient for small cells and it   |
|      is also less accurate ...                                              |
|      Therefore set LREAL=.FALSE. in the  INCAR file                         |
|                                                                             |
 ----------------------------------------------------------------------------- 

 Optimization of the real space projectors (new method)

 maximal supplied QI-value         = 34.20
 optimisation between [QCUT,QGAM] = [  9.92, 20.18] = [ 27.55,114.04] Ry 
 Optimized for a Real-space Cutoff    1.34 Angstroem

   l    n(q)    QCUT    max X(q) W(low)/X(q) W(high)/X(q)  e(spline) 
   0      8     9.919    19.460    0.16E-03    0.20E-03    0.36E-06
   0      8     9.919    12.209    0.16E-03    0.20E-03    0.35E-06
   1      8     9.919     4.655    0.19E-03    0.46E-03    0.40E-06
 Optimization of the real space projectors (new method)

 maximal supplied QI-value         = 25.13
 optimisation between [QCUT,QGAM] = [ 10.05, 20.36] = [ 28.30,116.06] Ry 
 Optimized for a Real-space Cutoff    1.51 Angstroem

   l    n(q)    QCUT    max X(q) W(low)/X(q) W(high)/X(q)  e(spline) 
   0      9    10.053   115.676    0.19E-03    0.21E-03    0.38E-06
   0      9    10.053    87.132    0.19E-03    0.21E-03    0.38E-06
   1      9    10.053     4.429    0.87E-04    0.11E-03    0.39E-06
   1      9    10.053     2.733    0.59E-04    0.62E-04    0.43E-06
  PAW_PBE H 15Jun2001                   :
 energy of atom  1       EATOM=  -12.4884
 kinetic energy error for atom=    0.0098 (will be added to EATOM!!)
  PAW_PBE C 08Apr2002                   :
 energy of atom  2       EATOM= -147.1560
 kinetic energy error for atom=    0.0288 (will be added to EATOM!!)


 POSCAR: POSCAR file written by OVITO            
  positions in cartesian coordinates
  No initial velocities read in
 exchange correlation table for  LEXCH =        8
   RHO(1)=    0.500       N(1)  =     2000
   RHO(2)=  100.500       N(2)  =     4000



--------------------------------------------------------------------------------------------------------


 ion  position               nearest neighbor table
   1  0.557  0.451  0.541-   5 1.08
   2  0.500  0.573  0.409-   5 1.11
   3  0.397  0.451  0.459-   5 1.09
   4  0.551  0.409  0.367-   5 1.08
   5  0.504  0.466  0.446-   4 1.08   1 1.08   3 1.09   2 1.11


IMPORTANT INFORMATION: All symmetrisations will be switched off!
NOSYMM: (Re-)initialisation of all symmetry stuff for point group C_1.




Automatic generation of k-mesh.
 generate k-points for:    1    1    1
Space group operators:
 irot       det(A)        alpha          n_x          n_y          n_z        tau_x        tau_y        tau_z
    1     1.000000     0.000001     1.000000     0.000000     0.000000     0.000000     0.000000     0.000000
 
 Subroutine IBZKPT returns following result:
 ===========================================
 
 Found      1 irreducible k-points:
 
 Following reciprocal coordinates:
            Coordinates               Weight
  0.000000  0.000000  0.000000      1.000000
 
 Following cartesian coordinates:
            Coordinates               Weight
  0.000000  0.000000  0.000000      1.000000
 


--------------------------------------------------------------------------------------------------------




 Dimension of arrays:
   k-points           NKPTS =      1   k-points in BZ     NKDIM =      1   number of bands    NBANDS=      8
   number of dos      NEDOS =    301   number of ions     NIONS =      5
   non local maximal  LDIM  =      4   non local SUM 2l+1 LMDIM =      8
   total plane-waves  NPLWV = 313600
   max r-space proj   IRMAX =   4693   max aug-charges    IRDMAX=   4010
   dimension x,y,z NGX =    70 NGY =   64 NGZ =   70
   dimension x,y,z NGXF=   140 NGYF=  128 NGZF=  140
   support grid    NGXF=   140 NGYF=  128 NGZF=  140
   ions per type =               4   1
   NGX,Y,Z   is equivalent  to a cutoff of  11.67, 10.89, 11.67 a.u.
   NGXF,Y,Z  is equivalent  to a cutoff of  23.34, 21.77, 23.35 a.u.

 SYSTEM =  unknown system                          
 POSCAR =  POSCAR file written by OVITO            

 Startparameter for this run:
   NWRITE =      2    write-flag & timer
   PREC   = a         normal or accurate (medium, high low for compatibility)
   ISTART =      0    job   : 0-new  1-cont  2-samecut
   ICHARG =      2    charge: 1-file 2-atom 10-const
   ISPIN  =      1    spin polarized calculation?
   LNONCOLLINEAR =      F non collinear calculations
   LSORBIT =      F    spin-orbit coupling
   INIWAV =      1    electr: 0-lowe 1-rand  2-diag
   LASPH  =      F    aspherical Exc in radial PAW
   METAGGA=      F    non-selfconsistent MetaGGA calc.

 Electronic Relaxation 1
   ENCUT  =  400.0 eV  29.40 Ry    5.42 a.u.  16.26 15.94 16.25*2*pi/ulx,y,z
   ENINI  =  400.0     initial cutoff
   ENAUG  =  644.9 eV  augmentation charge cutoff
   NELM   =    120;   NELMIN=  4; NELMDL= -5     # of ELM steps 
   EDIFF  = 0.1E-05   stopping-criterion for ELM
   LREAL  =      T    real-space projection
   NLSPLINE    = F    spline interpolate recip. space projectors
   LCOMPAT=      F    compatible to vasp.4.4
   GGA_COMPAT  = T    GGA compatible to vasp.4.4-vasp.4.6
   LMAXPAW     = -100 max onsite density
   LMAXMIX     =    2 max onsite mixed and CHGCAR
   VOSKOWN=      0    Vosko Wilk Nusair interpolation
   ROPT   =   -0.00025  -0.00025
 Ionic relaxation
   EDIFFG = 0.1E-04   stopping-criterion for IOM
   NSW    =      0    number of steps for IOM
   NBLOCK =      1;   KBLOCK =      1    inner block; outer block 
   IBRION =     -1    ionic relax: 0-MD 1-quasi-New 2-CG
   NFREE  =      0    steps in history (QN), initial steepest desc. (CG)
   ISIF   =      2    stress and relaxation
   IWAVPR =     10    prediction:  0-non 1-charg 2-wave 3-comb
   ISYM   =      0    0-nonsym 1-usesym 2-fastsym
   LCORR  =      T    Harris-Foulkes like correction to forces

   POTIM  = 0.5000    time-step for ionic-motion
   TEIN   =    0.0    initial temperature
   TEBEG  =    0.0;   TEEND  =   0.0 temperature during run
   SMASS  =  -3.00    Nose mass-parameter (am)
   estimated Nose-frequenzy (Omega)   =  0.10E-29 period in steps =****** mass=  -0.227E-26a.u.
   SCALEE = 1.0000    scale energy and forces
   NPACO  =    256;   APACO  = 16.0  distance and # of slots for P.C.
   PSTRESS=    0.0 pullay stress

  Mass of Ions in am
   POMASS =   1.00 12.01
  Ionic Valenz
   ZVAL   =   1.00  4.00
  Atomic Wigner-Seitz radii
   RWIGS  =  -1.00 -1.00
  virtual crystal weights 
   VCA    =   1.00  1.00
   NELECT =       8.0000    total number of electrons
   NUPDOWN=      -1.0000    fix difference up-down

 DOS related values:
   EMIN   =  10.00;   EMAX   =-10.00  energy-range for DOS
   EFERMI =   0.00
   ISMEAR =     0;   SIGMA  =   0.05  broadening in eV -4-tet -1-fermi 0-gaus

 Electronic relaxation 2 (details)
   IALGO  =     38    algorithm
   LDIAG  =      T    sub-space diagonalisation (order eigenvalues)
   LSUBROT=      F    optimize rotation matrix (better conditioning)
   TURBO    =      0    0=normal 1=particle mesh
   IRESTART =      0    0=no restart 2=restart with 2 vectors
   NREBOOT  =      0    no. of reboots
   NMIN     =      0    reboot dimension
   EREF     =   0.00    reference energy to select bands
   IMIX   =      4    mixing-type and parameters
     AMIX     =   0.40;   BMIX     =  1.00
     AMIX_MAG =   1.60;   BMIX_MAG =  1.00
     AMIN     =   0.10
     WC   =   100.;   INIMIX=   1;  MIXPRE=   1;  MAXMIX= -45

 Intra band minimization:
   WEIMIN = 0.0000     energy-eigenvalue tresh-hold
   EBREAK =  0.31E-07  absolut break condition
   DEPER  =   0.30     relativ break condition  

   TIME   =   0.40     timestep for ELM

  volume/ion in A,a.u.               =     194.24      1310.76
  Fermi-wavevector in a.u.,A,eV,Ry     =   0.330627  0.624795  1.487314  0.109314
  Thomas-Fermi vector in A             =   1.226093

 Write flags
   LWAVE        =      F    write WAVECAR
   LDOWNSAMPLE  =      F    k-point downsampling of WAVECAR
   LCHARG       =      F    write CHGCAR
   LVTOT        =      F    write LOCPOT, total local potential
   LVHAR        =      F    write LOCPOT, Hartree potential only
   LELF         =      F    write electronic localiz. function (ELF)
   LORBIT       =      0    0 simple, 1 ext, 2 COOP (PROOUT), +10 PAW based schemes


 Dipole corrections
   LMONO  =      F    monopole corrections only (constant potential shift)
   LDIPOL =      F    correct potential (dipole corrections)
   IDIPOL =      0    1-x, 2-y, 3-z, 4-all directions 
   EPSILON=  1.0000000 bulk dielectric constant

 Exchange correlation treatment:
   GGA     =    --    GGA type
   LEXCH   =     8    internal setting for exchange type
   VOSKOWN=      0    Vosko Wilk Nusair interpolation
   LHFCALC =     F    Hartree Fock is set to
   LHFONE  =     F    Hartree Fock one center treatment
   AEXX    =    0.0000 exact exchange contribution

 Linear response parameters
   LEPSILON=     F    determine dielectric tensor
   LRPA    =     F    only Hartree local field effects (RPA)
   LNABLA  =     F    use nabla operator in PAW spheres
   LVEL    =     F    velocity operator in full k-point grid
   LINTERFAST=   F  fast interpolation
   KINTER  =     0    interpolate to denser k-point grid
   CSHIFT  =0.1000    complex shift for real part using Kramers Kronig
   OMEGAMAX=  -1.0    maximum frequency
   DEG_THRESHOLD= 0.2000000E-02 threshold for treating states as degnerate
   RTIME   =   -0.100 relaxation time in fs
  (WPLASMAI=    0.000 imaginary part of plasma frequency in eV, 0.658/RTIME)
   DFIELD  = 0.0000000 0.0000000 0.0000000 field for delta impulse in time

 Orbital magnetization related:
   ORBITALMAG=     F  switch on orbital magnetization
   LCHIMAG   =     F  perturbation theory with respect to B field
   DQ        =  0.001000  dq finite difference perturbation B field
   LLRAUG    =     F  two centre corrections for induced B field



--------------------------------------------------------------------------------------------------------


 Static calculation
 charge density and potential will be updated during run
 non-spin polarized calculation
 Variant of blocked Davidson
 Davidson routine will perform the subspace rotation
 perform sub-space diagonalisation
    after iterative eigenvector-optimisation
 modified Broyden-mixing scheme, WC =      100.0
 initial mixing is a Kerker type mixing with AMIX =  0.4000 and BMIX =      1.0000
 Hartree-type preconditioning will be used
 using additional bands            4
 real space projection scheme for non local part
 use partial core corrections
 calculate Harris-corrections to forces   (improved forces if not selfconsistent)
 use gradient corrections 
 use of overlap-Matrix (Vanderbilt PP)
 Gauss-broadening in eV      SIGMA  =   0.05


--------------------------------------------------------------------------------------------------------


  energy-cutoff  :      400.00
  volume of cell :      971.18
      direct lattice vectors                 reciprocal lattice vectors
     9.973482200  0.000000000  0.000000000     0.100265883 -0.001879568  0.002677554
     0.183199400  9.772802400  0.000000000     0.000000000  0.102324795 -0.000760072
    -0.264695600  0.074012700  9.963963600     0.000000000  0.000000000  0.100361667

  length of vectors
     9.973482200  9.774519363  9.967753622     0.100319237  0.102327618  0.100361667



 k-points in units of 2pi/SCALE and weight: read from INCAR                         
   0.00000000  0.00000000  0.00000000       1.000

 k-points in reciprocal lattice and weights: read from INCAR                         
   0.00000000  0.00000000  0.00000000       1.000

 position of ions in fractional coordinates (direct lattice) 
   0.55681244  0.45089117  0.54054992
   0.50025842  0.57325338  0.40906413
   0.39688073  0.45094460  0.45918672
   0.55083622  0.40890080  0.36711893
   0.50379231  0.46613788  0.44552752

 position of ions in cartesian coordinates  (Angst):
   5.49288080  4.44647790  5.38601970
   4.98606060  5.63256790  4.07590010
   3.91935100  4.44097810  4.57531980
   5.47149090  4.02327820  3.65795970
   4.99203060  4.58844810  4.43922000



--------------------------------------------------------------------------------------------------------


 k-point  1 :   0.0000 0.0000 0.0000  plane waves:   17639

 maximum and minimum number of plane-waves per node :     17639    17639

 maximum number of plane-waves:     17639
 maximum index in each direction: 
   IXMAX=   16   IYMAX=   15   IZMAX=   16
   IXMIN=  -16   IYMIN=  -15   IZMIN=  -16


 serial   3D FFT for wavefunctions
 parallel 3D FFT for charge:
    minimum data exchange during FFTs selected (reduces bandwidth)


 total amount of memory used by VASP MPI-rank0   274670. kBytes
=======================================================================

   base      :      30000. kBytes
   nonlr-proj:       1268. kBytes
   fftplans  :      86584. kBytes
   grid      :     154542. kBytes
   one-center:         15. kBytes
   wavefun   :       2261. kBytes

     INWAV:  cpu time    0.0000: real time    0.0000
 Broyden mixing: mesh for mixing (old mesh)
   NGX = 33   NGY = 31   NGZ = 33
  (NGX  =140   NGY  =128   NGZ  =140)
  gives a total of  33759 points

 initial charge density was supplied:
 charge density of overlapping atoms calculated
 number of electron       8.0000000 magnetization 
 keeping initial charge density in first step


--------------------------------------------------------------------------------------------------------


 Maximum index for non-local projection operator         4503
 Maximum index for augmentation-charges         3701 (set IRDMAX)


--------------------------------------------------------------------------------------------------------


 First call to EWALD:  gamma=   0.179
 Maximum number of real-space cells 3x 3x 3
 Maximum number of reciprocal cells 3x 3x 3

    FEWALD:  cpu time    0.0008: real time    0.0008


--------------------------------------- Iteration      1(   1)  ---------------------------------------


    POTLOK:  cpu time    1.7871: real time    1.7917
    SETDIJ:  cpu time    0.0070: real time    0.0070
     EDDAV:  cpu time    0.7089: real time    0.7105
       DOS:  cpu time    0.0001: real time    0.0001
    --------------------------------------------
      LOOP:  cpu time    2.5032: real time    2.5094

 eigenvalue-minimisations  :    24
 total energy-change (2. order) : 0.1301211E+02  (-0.2052832E+03)
 number of electron       8.0000000 magnetization 
 augmentation part        8.0000000 magnetization 

 Free energy of the ion-electron system (eV)
  ---------------------------------------------------
  alpha Z        PSCENC =         0.24944060
  Ewald energy   TEWEN  =       129.58995218
  -Hartree energ DENC   =      -243.89153261
  -exchange      EXHF   =         0.00000000
  -V(xc)+E(xc)   XCENC  =        22.06116935
  PAW double counting   =       117.05815612     -117.66307307
  entropy T*S    EENTRO =        -0.00000000
  eigenvalues    EBANDS =       -91.43375307
  atomic energy  EATOM  =       197.04175453
  Solvation  Ediel_sol  =         0.00000000
  ---------------------------------------------------
  free energy    TOTEN  =        13.01211404 eV

  energy without entropy =       13.01211404  energy(sigma->0) =       13.01211404


--------------------------------------------------------------------------------------------------------




--------------------------------------- Iteration      1(   2)  ---------------------------------------


     EDDAV:  cpu time    0.5191: real time    0.5204
       DOS:  cpu time    0.0001: real time    0.0001
    --------------------------------------------
      LOOP:  cpu time    0.5192: real time    0.5206

 eigenvalue-minimisations  :    16
 total energy-change (2. order) :-0.3562227E+02  (-0.3562227E+02)
 number of electron       8.0000000 magnetization 
 augmentation part        8.0000000 magnetization 

 Free energy of the ion-electron system (eV)
  ---------------------------------------------------
  alpha Z        PSCENC =         0.24944060
  Ewald energy   TEWEN  =       129.58995218
  -Hartree energ DENC   =      -243.89153261
  -exchange      EXHF   =         0.00000000
  -V(xc)+E(xc)   XCENC  =        22.06116935
  PAW double counting   =       117.05815612     -117.66307307
  entropy T*S    EENTRO =        -0.00000000
  eigenvalues    EBANDS =      -127.05602319
  atomic energy  EATOM  =       197.04175453
  Solvation  Ediel_sol  =         0.00000000
  ---------------------------------------------------
  free energy    TOTEN  =       -22.61015608 eV

  energy without entropy =      -22.61015608  energy(sigma->0) =      -22.61015608


--------------------------------------------------------------------------------------------------------




--------------------------------------- Iteration      1(   3)  ---------------------------------------


     EDDAV:  cpu time    0.5467: real time    0.5480
       DOS:  cpu time    0.0001: real time    0.0001
    --------------------------------------------
      LOOP:  cpu time    0.5468: real time    0.5481

 eigenvalue-minimisations  :    16
 total energy-change (2. order) :-0.4754205E+01  (-0.4754205E+01)
 number of electron       8.0000000 magnetization 
 augmentation part        8.0000000 magnetization 

 Free energy of the ion-electron system (eV)
  ---------------------------------------------------
  alpha Z        PSCENC =         0.24944060
  Ewald energy   TEWEN  =       129.58995218
  -Hartree energ DENC   =      -243.89153261
  -exchange      EXHF   =         0.00000000
  -V(xc)+E(xc)   XCENC  =        22.06116935
  PAW double counting   =       117.05815612     -117.66307307
  entropy T*S    EENTRO =        -0.00000000
  eigenvalues    EBANDS =      -131.81022830
  atomic energy  EATOM  =       197.04175453
  Solvation  Ediel_sol  =         0.00000000
  ---------------------------------------------------
  free energy    TOTEN  =       -27.36436120 eV

  energy without entropy =      -27.36436120  energy(sigma->0) =      -27.36436120


--------------------------------------------------------------------------------------------------------




--------------------------------------- Iteration      1(   4)  ---------------------------------------


     EDDAV:  cpu time    0.8871: real time    0.8892
       DOS:  cpu time    0.0001: real time    0.0001
    --------------------------------------------
      LOOP:  cpu time    0.8872: real time    0.8893

 eigenvalue-minimisations  :    32
 total energy-change (2. order) :-0.1963404E+00  (-0.1963404E+00)
 number of electron       8.0000000 magnetization 
 augmentation part        8.0000000 magnetization 

 Free energy of the ion-electron system (eV)
  ---------------------------------------------------
  alpha Z        PSCENC =         0.24944060
  Ewald energy   TEWEN  =       129.58995218
  -Hartree energ DENC   =      -243.89153261
  -exchange      EXHF   =         0.00000000
  -V(xc)+E(xc)   XCENC  =        22.06116935
  PAW double counting   =       117.05815612     -117.66307307
  entropy T*S    EENTRO =        -0.00000000
  eigenvalues    EBANDS =      -132.00656874
  atomic energy  EATOM  =       197.04175453
  Solvation  Ediel_sol  =         0.00000000
  ---------------------------------------------------
  free energy    TOTEN  =       -27.56070164 eV

  energy without entropy =      -27.56070164  energy(sigma->0) =      -27.56070164


--------------------------------------------------------------------------------------------------------




--------------------------------------- Iteration      1(   5)  ---------------------------------------


     EDDAV:  cpu time    0.9664: real time    0.9687
       DOS:  cpu time    0.0001: real time    0.0001
    CHARGE:  cpu time    0.1226: real time    0.1229
    MIXING:  cpu time    0.0390: real time    0.0391
    --------------------------------------------
      LOOP:  cpu time    1.1281: real time    1.1308

 eigenvalue-minimisations  :    32
 total energy-change (2. order) :-0.6181697E-04  (-0.6181679E-04)
 number of electron       8.0000004 magnetization 
 augmentation part        0.2285454 magnetization 

 Broyden mixing:
  rms(total) = 0.88677E+00    rms(broyden)= 0.88653E+00
  rms(prec ) = 0.12651E+01
  weight for this iteration     100.00

 Free energy of the ion-electron system (eV)
  ---------------------------------------------------
  alpha Z        PSCENC =         0.24944060
  Ewald energy   TEWEN  =       129.58995218
  -Hartree energ DENC   =      -243.89153261
  -exchange      EXHF   =         0.00000000
  -V(xc)+E(xc)   XCENC  =        22.06116935
  PAW double counting   =       117.05815612     -117.66307307
  entropy T*S    EENTRO =        -0.00000000
  eigenvalues    EBANDS =      -132.00663056
  atomic energy  EATOM  =       197.04175453
  Solvation  Ediel_sol  =         0.00000000
  ---------------------------------------------------
  free energy    TOTEN  =       -27.56076346 eV

  energy without entropy =      -27.56076346  energy(sigma->0) =      -27.56076346


--------------------------------------------------------------------------------------------------------




--------------------------------------- Iteration      1(   6)  ---------------------------------------


    POTLOK:  cpu time    1.8738: real time    1.8783
    SETDIJ:  cpu time    0.0073: real time    0.0073
     EDDAV:  cpu time    0.7785: real time    0.7804
       DOS:  cpu time    0.0001: real time    0.0001
    CHARGE:  cpu time    0.1127: real time    0.1129
    MIXING:  cpu time    0.0413: real time    0.0414
    --------------------------------------------
      LOOP:  cpu time    2.8136: real time    2.8203

 eigenvalue-minimisations  :    24
 total energy-change (2. order) : 0.2985912E+01  (-0.9048157E+00)
 number of electron       8.0000003 magnetization 
 augmentation part        0.2000042 magnetization 

 Broyden mixing:
  rms(total) = 0.45189E+00    rms(broyden)= 0.45178E+00
  rms(prec ) = 0.57109E+00
  weight for this iteration     100.00

 eigenvalues of (default mixing * dielectric matrix)
  average eigenvalue GAMMA=   1.2020
  1.2020

 Free energy of the ion-electron system (eV)
  ---------------------------------------------------
  alpha Z        PSCENC =         0.24944060
  Ewald energy   TEWEN  =       129.58995218
  -Hartree energ DENC   =      -263.95630442
  -exchange      EXHF   =         0.00000000
  -V(xc)+E(xc)   XCENC  =        23.27771469
  PAW double counting   =       241.42966370     -242.21444384
  entropy T*S    EENTRO =        -0.00000000
  eigenvalues    EBANDS =      -109.99262862
  atomic energy  EATOM  =       197.04175453
  Solvation  Ediel_sol  =         0.00000000
  ---------------------------------------------------
  free energy    TOTEN  =       -24.57485118 eV

  energy without entropy =      -24.57485118  energy(sigma->0) =      -24.57485118


--------------------------------------------------------------------------------------------------------




--------------------------------------- Iteration      1(   7)  ---------------------------------------


    POTLOK:  cpu time    2.0507: real time    2.0556
    SETDIJ:  cpu time    0.0072: real time    0.0072
     EDDAV:  cpu time    1.0007: real time    1.0030
       DOS:  cpu time    0.0001: real time    0.0001
    CHARGE:  cpu time    0.1339: real time    0.1342
    MIXING:  cpu time    0.0451: real time    0.0452
    --------------------------------------------
      LOOP:  cpu time    3.2377: real time    3.2454

 eigenvalue-minimisations  :    32
 total energy-change (2. order) : 0.4984569E+00  (-0.7879858E-01)
 number of electron       8.0000003 magnetization 
 augmentation part        0.1912780 magnetization 

 Broyden mixing:
  rms(total) = 0.22992E+00    rms(broyden)= 0.22987E+00
  rms(prec ) = 0.28404E+00
  weight for this iteration     100.00

 eigenvalues of (default mixing * dielectric matrix)
  average eigenvalue GAMMA=   1.6979
  1.2592  2.1366

 Free energy of the ion-electron system (eV)
  ---------------------------------------------------
  alpha Z        PSCENC =         0.24944060
  Ewald energy   TEWEN  =       129.58995218
  -Hartree energ DENC   =      -274.30308861
  -exchange      EXHF   =         0.00000000
  -V(xc)+E(xc)   XCENC  =        24.05230373
  PAW double counting   =       374.09824660     -374.91300135
  entropy T*S    EENTRO =        -0.00000000
  eigenvalues    EBANDS =       -99.89200200
  atomic energy  EATOM  =       197.04175453
  Solvation  Ediel_sol  =         0.00000000
  ---------------------------------------------------
  free energy    TOTEN  =       -24.07639432 eV

  energy without entropy =      -24.07639432  energy(sigma->0) =      -24.07639432


--------------------------------------------------------------------------------------------------------




--------------------------------------- Iteration      1(   8)  ---------------------------------------


    POTLOK:  cpu time    2.0703: real time    2.0752
    SETDIJ:  cpu time    0.0069: real time    0.0069
     EDDAV:  cpu time    0.8482: real time    0.8502
       DOS:  cpu time    0.0001: real time    0.0001
    CHARGE:  cpu time    0.1146: real time    0.1148
    MIXING:  cpu time    0.0442: real time    0.0443
    --------------------------------------------
      LOOP:  cpu time    3.0842: real time    3.0916

 eigenvalue-minimisations  :    24
 total energy-change (2. order) : 0.1643687E+00  (-0.1861609E-01)
 number of electron       8.0000003 magnetization 
 augmentation part        0.1886442 magnetization 

 Broyden mixing:
  rms(total) = 0.27427E-01    rms(broyden)= 0.27397E-01
  rms(prec ) = 0.56708E-01
  weight for this iteration     100.00

 eigenvalues of (default mixing * dielectric matrix)
  average eigenvalue GAMMA=   1.5439
  2.1441  1.1056  1.3819

 Free energy of the ion-electron system (eV)
  ---------------------------------------------------
  alpha Z        PSCENC =         0.24944060
  Ewald energy   TEWEN  =       129.58995218
  -Hartree energ DENC   =      -281.32969806
  -exchange      EXHF   =         0.00000000
  -V(xc)+E(xc)   XCENC  =        24.67865679
  PAW double counting   =       490.92750363     -491.72776813
  entropy T*S    EENTRO =        -0.00000000
  eigenvalues    EBANDS =       -93.34186710
  atomic energy  EATOM  =       197.04175453
  Solvation  Ediel_sol  =         0.00000000
  ---------------------------------------------------
  free energy    TOTEN  =       -23.91202558 eV

  energy without entropy =      -23.91202558  energy(sigma->0) =      -23.91202558


--------------------------------------------------------------------------------------------------------




--------------------------------------- Iteration      1(   9)  ---------------------------------------


    POTLOK:  cpu time    2.0538: real time    2.0587
    SETDIJ:  cpu time    0.0074: real time    0.0074
     EDDAV:  cpu time    1.1363: real time    1.1390
       DOS:  cpu time    0.0001: real time    0.0001
    CHARGE:  cpu time    0.1311: real time    0.1315
    MIXING:  cpu time    0.0449: real time    0.0450
    --------------------------------------------
      LOOP:  cpu time    3.3736: real time    3.3817

 eigenvalue-minimisations  :    32
 total energy-change (2. order) : 0.6825753E-02  (-0.3283576E-03)
 number of electron       8.0000003 magnetization 
 augmentation part        0.1881271 magnetization 

 Broyden mixing:
  rms(total) = 0.16806E-01    rms(broyden)= 0.16803E-01
  rms(prec ) = 0.37953E-01
  weight for this iteration     100.00

 eigenvalues of (default mixing * dielectric matrix)
  average eigenvalue GAMMA=   1.8921
  2.9428  2.4411  0.9730  1.2114

 Free energy of the ion-electron system (eV)
  ---------------------------------------------------
  alpha Z        PSCENC =         0.24944060
  Ewald energy   TEWEN  =       129.58995218
  -Hartree energ DENC   =      -282.64310572
  -exchange      EXHF   =         0.00000000
  -V(xc)+E(xc)   XCENC  =        24.74892696
  PAW double counting   =       488.91407929     -489.71218409
  entropy T*S    EENTRO =        -0.00000000
  eigenvalues    EBANDS =       -92.09406357
  atomic energy  EATOM  =       197.04175453
  Solvation  Ediel_sol  =         0.00000000
  ---------------------------------------------------
  free energy    TOTEN  =       -23.90519983 eV

  energy without entropy =      -23.90519983  energy(sigma->0) =      -23.90519983


--------------------------------------------------------------------------------------------------------




--------------------------------------- Iteration      1(  10)  ---------------------------------------


    POTLOK:  cpu time    1.9279: real time    1.9325
    SETDIJ:  cpu time    0.0074: real time    0.0074
     EDDAV:  cpu time    0.6416: real time    0.6431
       DOS:  cpu time    0.0001: real time    0.0001
    CHARGE:  cpu time    0.1212: real time    0.1215
    MIXING:  cpu time    0.0481: real time    0.0483
    --------------------------------------------
      LOOP:  cpu time    2.7463: real time    2.7528

 eigenvalue-minimisations  :    16
 total energy-change (2. order) : 0.8914507E-02  (-0.5779610E-03)
 number of electron       8.0000003 magnetization 
 augmentation part        0.1879020 magnetization 

 Broyden mixing:
  rms(total) = 0.71099E-02    rms(broyden)= 0.71086E-02
  rms(prec ) = 0.16764E-01
  weight for this iteration     100.00

 eigenvalues of (default mixing * dielectric matrix)
  average eigenvalue GAMMA=   1.9101
  3.0714  0.9932  1.2153  2.1353  2.1353

 Free energy of the ion-electron system (eV)
  ---------------------------------------------------
  alpha Z        PSCENC =         0.24944060
  Ewald energy   TEWEN  =       129.58995218
  -Hartree energ DENC   =      -284.32611939
  -exchange      EXHF   =         0.00000000
  -V(xc)+E(xc)   XCENC  =        24.82375436
  PAW double counting   =       479.15972838     -479.95359776
  entropy T*S    EENTRO =        -0.00000000
  eigenvalues    EBANDS =       -90.48119822
  atomic energy  EATOM  =       197.04175453
  Solvation  Ediel_sol  =         0.00000000
  ---------------------------------------------------
  free energy    TOTEN  =       -23.89628532 eV

  energy without entropy =      -23.89628532  energy(sigma->0) =      -23.89628532


--------------------------------------------------------------------------------------------------------




--------------------------------------- Iteration      1(  11)  ---------------------------------------


    POTLOK:  cpu time    1.8189: real time    1.8232
    SETDIJ:  cpu time    0.0081: real time    0.0082
     EDDAV:  cpu time    0.8518: real time    0.8538
       DOS:  cpu time    0.0001: real time    0.0001
    CHARGE:  cpu time    0.1445: real time    0.1448
    MIXING:  cpu time    0.0514: real time    0.0515
    --------------------------------------------
      LOOP:  cpu time    2.8748: real time    2.8816

 eigenvalue-minimisations  :    24
 total energy-change (2. order) :-0.7852563E-02  (-0.3059472E-03)
 number of electron       8.0000003 magnetization 
 augmentation part        0.1875194 magnetization 

 Broyden mixing:
  rms(total) = 0.61174E-02    rms(broyden)= 0.61166E-02
  rms(prec ) = 0.10449E-01
  weight for this iteration     100.00

 eigenvalues of (default mixing * dielectric matrix)
  average eigenvalue GAMMA=   2.1205
  4.4300  2.8473  2.2267  1.2387  0.9901  0.9901

 Free energy of the ion-electron system (eV)
  ---------------------------------------------------
  alpha Z        PSCENC =         0.24944060
  Ewald energy   TEWEN  =       129.58995218
  -Hartree energ DENC   =      -285.19924345
  -exchange      EXHF   =         0.00000000
  -V(xc)+E(xc)   XCENC  =        24.85862127
  PAW double counting   =       482.52671323     -483.32203021
  entropy T*S    EENTRO =        -0.00000000
  eigenvalues    EBANDS =       -89.64934604
  atomic energy  EATOM  =       197.04175453
  Solvation  Ediel_sol  =         0.00000000
  ---------------------------------------------------
  free energy    TOTEN  =       -23.90413788 eV

  energy without entropy =      -23.90413788  energy(sigma->0) =      -23.90413788


--------------------------------------------------------------------------------------------------------




--------------------------------------- Iteration      1(  12)  ---------------------------------------


    POTLOK:  cpu time    1.7889: real time    1.7931
    SETDIJ:  cpu time    0.0073: real time    0.0073
     EDDAV:  cpu time    0.8410: real time    0.8430
       DOS:  cpu time    0.0001: real time    0.0001
    CHARGE:  cpu time    0.1435: real time    0.1438
    MIXING:  cpu time    0.0504: real time    0.0506
    --------------------------------------------
      LOOP:  cpu time    2.8312: real time    2.8379

 eigenvalue-minimisations  :    24
 total energy-change (2. order) :-0.3434541E-02  (-0.5403805E-04)
 number of electron       8.0000003 magnetization 
 augmentation part        0.1876626 magnetization 

 Broyden mixing:
  rms(total) = 0.22023E-02    rms(broyden)= 0.22023E-02
  rms(prec ) = 0.50338E-02
  weight for this iteration     100.00

 eigenvalues of (default mixing * dielectric matrix)
  average eigenvalue GAMMA=   2.3570
  5.2506  3.2446  2.6913  2.0470  1.2408  1.0125  1.0125

 Free energy of the ion-electron system (eV)
  ---------------------------------------------------
  alpha Z        PSCENC =         0.24944060
  Ewald energy   TEWEN  =       129.58995218
  -Hartree energ DENC   =      -285.00746246
  -exchange      EXHF   =         0.00000000
  -V(xc)+E(xc)   XCENC  =        24.83397208
  PAW double counting   =       478.62264422     -479.41752622
  entropy T*S    EENTRO =        -0.00000000
  eigenvalues    EBANDS =       -89.82034735
  atomic energy  EATOM  =       197.04175453
  Solvation  Ediel_sol  =         0.00000000
  ---------------------------------------------------
  free energy    TOTEN  =       -23.90757242 eV

  energy without entropy =      -23.90757242  energy(sigma->0) =      -23.90757242


--------------------------------------------------------------------------------------------------------




--------------------------------------- Iteration      1(  13)  ---------------------------------------


    POTLOK:  cpu time    1.7783: real time    1.7825
    SETDIJ:  cpu time    0.0074: real time    0.0074
     EDDAV:  cpu time    0.5882: real time    0.5896
       DOS:  cpu time    0.0001: real time    0.0001
    CHARGE:  cpu time    0.1252: real time    0.1255
    MIXING:  cpu time    0.0481: real time    0.0482
    --------------------------------------------
      LOOP:  cpu time    2.5472: real time    2.5533

 eigenvalue-minimisations  :    16
 total energy-change (2. order) :-0.4072440E-02  (-0.9224709E-04)
 number of electron       8.0000003 magnetization 
 augmentation part        0.1876481 magnetization 

 Broyden mixing:
  rms(total) = 0.21000E-02    rms(broyden)= 0.20999E-02
  rms(prec ) = 0.29419E-02
  weight for this iteration     100.00

 eigenvalues of (default mixing * dielectric matrix)
  average eigenvalue GAMMA=   2.3128
  5.8578  3.6360  2.5206  2.2052  1.2653  1.0821  0.9400  0.9958

 Free energy of the ion-electron system (eV)
  ---------------------------------------------------
  alpha Z        PSCENC =         0.24944060
  Ewald energy   TEWEN  =       129.58995218
  -Hartree energ DENC   =      -285.08251502
  -exchange      EXHF   =         0.00000000
  -V(xc)+E(xc)   XCENC  =        24.83379938
  PAW double counting   =       480.59444041     -481.38863021
  entropy T*S    EENTRO =        -0.00000000
  eigenvalues    EBANDS =       -89.74988674
  atomic energy  EATOM  =       197.04175453
  Solvation  Ediel_sol  =         0.00000000
  ---------------------------------------------------
  free energy    TOTEN  =       -23.91164486 eV

  energy without entropy =      -23.91164486  energy(sigma->0) =      -23.91164486


--------------------------------------------------------------------------------------------------------




--------------------------------------- Iteration      1(  14)  ---------------------------------------


    POTLOK:  cpu time    1.7548: real time    1.7592
    SETDIJ:  cpu time    0.0075: real time    0.0075
     EDDAV:  cpu time    1.1351: real time    1.1378
       DOS:  cpu time    0.0001: real time    0.0001
    CHARGE:  cpu time    0.1308: real time    0.1311
    MIXING:  cpu time    0.0493: real time    0.0494
    --------------------------------------------
      LOOP:  cpu time    3.0776: real time    3.0851

 eigenvalue-minimisations  :    32
 total energy-change (2. order) :-0.6194058E-03  (-0.7074881E-05)
 number of electron       8.0000003 magnetization 
 augmentation part        0.1876267 magnetization 

 Broyden mixing:
  rms(total) = 0.77981E-03    rms(broyden)= 0.77961E-03
  rms(prec ) = 0.14193E-02
  weight for this iteration     100.00

 eigenvalues of (default mixing * dielectric matrix)
  average eigenvalue GAMMA=   2.5152
  6.8569  4.2152  2.8933  2.3874  1.9307  1.2713  0.9997  0.9997  1.0823

 Free energy of the ion-electron system (eV)
  ---------------------------------------------------
  alpha Z        PSCENC =         0.24944060
  Ewald energy   TEWEN  =       129.58995218
  -Hartree energ DENC   =      -285.02555914
  -exchange      EXHF   =         0.00000000
  -V(xc)+E(xc)   XCENC  =        24.82735099
  PAW double counting   =       479.42567000     -480.22021645
  entropy T*S    EENTRO =        -0.00000000
  eigenvalues    EBANDS =       -89.80065698
  atomic energy  EATOM  =       197.04175453
  Solvation  Ediel_sol  =         0.00000000
  ---------------------------------------------------
  free energy    TOTEN  =       -23.91226427 eV

  energy without entropy =      -23.91226427  energy(sigma->0) =      -23.91226427


--------------------------------------------------------------------------------------------------------




--------------------------------------- Iteration      1(  15)  ---------------------------------------


    POTLOK:  cpu time    1.7239: real time    1.7280
    SETDIJ:  cpu time    0.0074: real time    0.0074
     EDDAV:  cpu time    0.6317: real time    0.6332
       DOS:  cpu time    0.0001: real time    0.0001
    CHARGE:  cpu time    0.1378: real time    0.1381
    MIXING:  cpu time    0.0535: real time    0.0536
    --------------------------------------------
      LOOP:  cpu time    2.5543: real time    2.5604

 eigenvalue-minimisations  :    16
 total energy-change (2. order) :-0.4346009E-03  (-0.4292409E-05)
 number of electron       8.0000003 magnetization 
 augmentation part        0.1876423 magnetization 

 Broyden mixing:
  rms(total) = 0.54000E-03    rms(broyden)= 0.53995E-03
  rms(prec ) = 0.72865E-03
  weight for this iteration     100.00

 eigenvalues of (default mixing * dielectric matrix)
  average eigenvalue GAMMA=   2.4859
  7.3197  4.6075  2.7870  2.5490  2.1006  1.2460  1.1436  1.0144  1.0455  1.0455

 Free energy of the ion-electron system (eV)
  ---------------------------------------------------
  alpha Z        PSCENC =         0.24944060
  Ewald energy   TEWEN  =       129.58995218
  -Hartree energ DENC   =      -285.01927221
  -exchange      EXHF   =         0.00000000
  -V(xc)+E(xc)   XCENC  =        24.82665663
  PAW double counting   =       479.10750576     -479.90191337
  entropy T*S    EENTRO =        -0.00000000
  eigenvalues    EBANDS =       -89.80682300
  atomic energy  EATOM  =       197.04175453
  Solvation  Ediel_sol  =         0.00000000
  ---------------------------------------------------
  free energy    TOTEN  =       -23.91269887 eV

  energy without entropy =      -23.91269887  energy(sigma->0) =      -23.91269887


--------------------------------------------------------------------------------------------------------




--------------------------------------- Iteration      1(  16)  ---------------------------------------


    POTLOK:  cpu time    1.7791: real time    1.7833
    SETDIJ:  cpu time    0.0076: real time    0.0076
     EDDAV:  cpu time    0.5837: real time    0.5851
       DOS:  cpu time    0.0001: real time    0.0001
    CHARGE:  cpu time    0.1263: real time    0.1266
    MIXING:  cpu time    0.0561: real time    0.0563
    --------------------------------------------
      LOOP:  cpu time    2.5529: real time    2.5589

 eigenvalue-minimisations  :    16
 total energy-change (2. order) :-0.5314080E-04  (-0.1935949E-06)
 number of electron       8.0000003 magnetization 
 augmentation part        0.1876360 magnetization 

 Broyden mixing:
  rms(total) = 0.17313E-03    rms(broyden)= 0.17310E-03
  rms(prec ) = 0.31184E-03
  weight for this iteration     100.00

 eigenvalues of (default mixing * dielectric matrix)
  average eigenvalue GAMMA=   2.6152
  7.9875  4.6374  3.7958  2.6145  2.3712  1.9923  1.2712  1.1189  0.9889  0.9889
  1.0000

 Free energy of the ion-electron system (eV)
  ---------------------------------------------------
  alpha Z        PSCENC =         0.24944060
  Ewald energy   TEWEN  =       129.58995218
  -Hartree energ DENC   =      -285.03082252
  -exchange      EXHF   =         0.00000000
  -V(xc)+E(xc)   XCENC  =        24.82742558
  PAW double counting   =       479.29428726     -480.08877431
  entropy T*S    EENTRO =        -0.00000000
  eigenvalues    EBANDS =       -89.79601533
  atomic energy  EATOM  =       197.04175453
  Solvation  Ediel_sol  =         0.00000000
  ---------------------------------------------------
  free energy    TOTEN  =       -23.91275201 eV

  energy without entropy =      -23.91275201  energy(sigma->0) =      -23.91275201


--------------------------------------------------------------------------------------------------------




--------------------------------------- Iteration      1(  17)  ---------------------------------------


    POTLOK:  cpu time    1.8583: real time    1.8627
    SETDIJ:  cpu time    0.0073: real time    0.0073
     EDDAV:  cpu time    0.6491: real time    0.6507
       DOS:  cpu time    0.0001: real time    0.0001
    CHARGE:  cpu time    0.1075: real time    0.1077
    MIXING:  cpu time    0.0484: real time    0.0485
    --------------------------------------------
      LOOP:  cpu time    2.6707: real time    2.6770

 eigenvalue-minimisations  :    16
 total energy-change (2. order) :-0.4983391E-04  (-0.3313859E-06)
 number of electron       8.0000003 magnetization 
 augmentation part        0.1876278 magnetization 

 Broyden mixing:
  rms(total) = 0.10817E-03    rms(broyden)= 0.10815E-03
  rms(prec ) = 0.17086E-03
  weight for this iteration     100.00

 eigenvalues of (default mixing * dielectric matrix)
  average eigenvalue GAMMA=   2.5451
  8.2764  5.1130  3.7447  2.6229  2.3609  1.9459  1.2479  1.2479  1.0395  1.0395
  0.9925  0.9105

 Free energy of the ion-electron system (eV)
  ---------------------------------------------------
  alpha Z        PSCENC =         0.24944060
  Ewald energy   TEWEN  =       129.58995218
  -Hartree energ DENC   =      -285.04781020
  -exchange      EXHF   =         0.00000000
  -V(xc)+E(xc)   XCENC  =        24.82836261
  PAW double counting   =       479.35539463     -480.14992190
  entropy T*S    EENTRO =        -0.00000000
  eigenvalues    EBANDS =       -89.77997429
  atomic energy  EATOM  =       197.04175453
  Solvation  Ediel_sol  =         0.00000000
  ---------------------------------------------------
  free energy    TOTEN  =       -23.91280185 eV

  energy without entropy =      -23.91280185  energy(sigma->0) =      -23.91280185


--------------------------------------------------------------------------------------------------------




--------------------------------------- Iteration      1(  18)  ---------------------------------------


    POTLOK:  cpu time    1.8344: real time    1.8387
    SETDIJ:  cpu time    0.0075: real time    0.0075
     EDDAV:  cpu time    1.0421: real time    1.0445
       DOS:  cpu time    0.0001: real time    0.0001
    CHARGE:  cpu time    0.1070: real time    0.1073
    MIXING:  cpu time    0.0472: real time    0.0473
    --------------------------------------------
      LOOP:  cpu time    3.0382: real time    3.0454

 eigenvalue-minimisations  :    32
 total energy-change (2. order) :-0.2332890E-05  (-0.3046847E-07)
 number of electron       8.0000003 magnetization 
 augmentation part        0.1876323 magnetization 

 Broyden mixing:
  rms(total) = 0.41652E-04    rms(broyden)= 0.41640E-04
  rms(prec ) = 0.66520E-04
  weight for this iteration     100.00

 eigenvalues of (default mixing * dielectric matrix)
  average eigenvalue GAMMA=   2.5515
  8.3525  5.2178  3.7983  2.5377  2.5377  2.0275  2.0275  1.3210  1.3210  0.9829
  0.9829  1.0311  1.0311

 Free energy of the ion-electron system (eV)
  ---------------------------------------------------
  alpha Z        PSCENC =         0.24944060
  Ewald energy   TEWEN  =       129.58995218
  -Hartree energ DENC   =      -285.04304543
  -exchange      EXHF   =         0.00000000
  -V(xc)+E(xc)   XCENC  =        24.82810850
  PAW double counting   =       479.35194443     -480.14643657
  entropy T*S    EENTRO =        -0.00000000
  eigenvalues    EBANDS =       -89.78452241
  atomic energy  EATOM  =       197.04175453
  Solvation  Ediel_sol  =         0.00000000
  ---------------------------------------------------
  free energy    TOTEN  =       -23.91280418 eV

  energy without entropy =      -23.91280418  energy(sigma->0) =      -23.91280418


--------------------------------------------------------------------------------------------------------




--------------------------------------- Iteration      1(  19)  ---------------------------------------


    POTLOK:  cpu time    1.8080: real time    1.8123
    SETDIJ:  cpu time    0.0069: real time    0.0070
     EDDAV:  cpu time    0.5341: real time    0.5354
       DOS:  cpu time    0.0001: real time    0.0001
    CHARGE:  cpu time    0.1040: real time    0.1043
    MIXING:  cpu time    0.0498: real time    0.0499
    --------------------------------------------
      LOOP:  cpu time    2.5030: real time    2.5089

 eigenvalue-minimisations  :    16
 total energy-change (2. order) :-0.3770355E-05  (-0.1019971E-07)
 number of electron       8.0000003 magnetization 
 augmentation part        0.1876324 magnetization 

 Broyden mixing:
  rms(total) = 0.14383E-04    rms(broyden)= 0.14380E-04
  rms(prec ) = 0.25349E-04
  weight for this iteration     100.00

 eigenvalues of (default mixing * dielectric matrix)
  average eigenvalue GAMMA=   2.5079
  8.4204  5.3639  4.0210  3.0542  2.5710  2.2770  1.7922  1.3136  1.3136  1.0319
  1.0319  0.9857  0.9668  0.9668

 Free energy of the ion-electron system (eV)
  ---------------------------------------------------
  alpha Z        PSCENC =         0.24944060
  Ewald energy   TEWEN  =       129.58995218
  -Hartree energ DENC   =      -285.04224323
  -exchange      EXHF   =         0.00000000
  -V(xc)+E(xc)   XCENC  =        24.82802098
  PAW double counting   =       479.35456262     -480.14904768
  entropy T*S    EENTRO =        -0.00000000
  eigenvalues    EBANDS =       -89.78524794
  atomic energy  EATOM  =       197.04175453
  Solvation  Ediel_sol  =         0.00000000
  ---------------------------------------------------
  free energy    TOTEN  =       -23.91280795 eV

  energy without entropy =      -23.91280795  energy(sigma->0) =      -23.91280795


--------------------------------------------------------------------------------------------------------




--------------------------------------- Iteration      1(  20)  ---------------------------------------


    POTLOK:  cpu time    1.6822: real time    1.6862
    SETDIJ:  cpu time    0.0068: real time    0.0068
     EDDAV:  cpu time    0.8555: real time    0.8575
       DOS:  cpu time    0.0001: real time    0.0001
    --------------------------------------------
      LOOP:  cpu time    2.5446: real time    2.5507

 eigenvalue-minimisations  :    32
 total energy-change (2. order) :-0.4163330E-06  (-0.1141306E-08)
 number of electron       8.0000003 magnetization 
 augmentation part        0.1876324 magnetization 

 Free energy of the ion-electron system (eV)
  ---------------------------------------------------
  alpha Z        PSCENC =         0.24944060
  Ewald energy   TEWEN  =       129.58995218
  -Hartree energ DENC   =      -285.04153583
  -exchange      EXHF   =         0.00000000
  -V(xc)+E(xc)   XCENC  =        24.82796923
  PAW double counting   =       479.35030544     -480.14478863
  entropy T*S    EENTRO =        -0.00000000
  eigenvalues    EBANDS =       -89.78590589
  atomic energy  EATOM  =       197.04175453
  Solvation  Ediel_sol  =         0.00000000
  ---------------------------------------------------
  free energy    TOTEN  =       -23.91280837 eV

  energy without entropy =      -23.91280837  energy(sigma->0) =      -23.91280837


--------------------------------------------------------------------------------------------------------




 average (electrostatic) potential at core
  the test charge radii are     0.5201  0.6991
  (the norm of the test charge is              1.0000)
       1 -41.6620       2 -41.3825       3 -41.5435       4 -41.6958       5 -57.9154



 E-fermi :  -8.4052     XC(G=0):  -0.7133     alpha+bet : -0.2169


 k-point     1 :       0.0000    0.0000    0.0000
  band No.  band energies     occupation 
      1     -16.9674      2.00000
      2      -9.6998      2.00000
      3      -9.5918      2.00000
      4      -8.6341      2.00000
      5      -0.5287      0.00000
      6       1.0179      0.00000
      7       1.0402      0.00000
      8       1.0662      0.00000


--------------------------------------------------------------------------------------------------------


 soft charge-density along one line, spin component           1
         0         1         2         3         4         5         6         7         8         9
 total charge-density along one line

 pseudopotential strength for first ion, spin component:           1
 -2.343  -4.037  -0.000   0.002   0.001
 -4.037  -6.871  -0.001   0.005   0.003
 -0.000  -0.001  -0.338  -0.001  -0.000
  0.002   0.005  -0.001  -0.334   0.002
  0.001   0.003  -0.000   0.002  -0.337
 total augmentation occupancy for first ion, spin component:           1
  3.600  -0.646   0.061  -0.395  -0.208
 -0.646   0.129  -0.010   0.072   0.039
  0.061  -0.010   0.011  -0.006  -0.002
 -0.395   0.072  -0.006   0.046   0.019
 -0.208   0.039  -0.002   0.019   0.020


------------------------ aborting loop because EDIFF is reached ----------------------------------------


    CHARGE:  cpu time    0.0919: real time    0.0921
    FORLOC:  cpu time    0.1079: real time    0.1081
    FORNL :  cpu time    0.1516: real time    0.1520
    STRESS:  cpu time    0.5906: real time    0.5920
    FORCOR:  cpu time    1.6163: real time    1.6201
    FORHAR:  cpu time    0.5246: real time    0.5259
    MIXING:  cpu time    0.0461: real time    0.0462
    OFIELD:  cpu time    0.0000: real time    0.0000

  FORCE on cell =-STRESS in cart. coord.  units (eV):
  Direction    XX          YY          ZZ          XY          YZ          ZX
  --------------------------------------------------------------------------------------
  Alpha Z     0.24944     0.24944     0.24944
  Ewald      45.24072    36.73788    47.61131    -9.65783    -3.46530    -2.85332
  Hartree    94.96179    94.78339    95.29669    -2.29841    -1.17823    -1.09761
  E(xc)     -27.28686   -27.33622   -27.28197    -0.05017    -0.02553    -0.01460
  Local    -198.32058  -191.88738  -200.37079    10.05343     4.21188     3.53595
  n-local   -16.09446   -16.12190   -16.08465    -0.02409    -0.01045     0.00486
  augment     0.10660     0.12365     0.10104     0.01373     0.00213     0.00292
  Kinetic   101.04542   103.63119   100.57366     2.57504     1.07931     0.57249
  Fock        0.00000     0.00000     0.00000     0.00000     0.00000     0.00000
  -------------------------------------------------------------------------------------
  Total      -0.09792     0.18005     0.09473     0.61171     0.61381     0.15068
  in kB      -0.16155     0.29703     0.15628     1.00916     1.01263     0.24858
  external pressure =        0.10 kB  Pullay stress =        0.00 kB


 VOLUME and BASIS-vectors are now :
 -----------------------------------------------------------------------------
  energy-cutoff  :      400.00
  volume of cell :      971.18
      direct lattice vectors                 reciprocal lattice vectors
     9.973482200  0.000000000  0.000000000     0.100265883 -0.001879568  0.002677554
     0.183199400  9.772802400  0.000000000     0.000000000  0.102324795 -0.000760072
    -0.264695600  0.074012700  9.963963600     0.000000000  0.000000000  0.100361667

  length of vectors
     9.973482200  9.774519363  9.967753622     0.100319237  0.102327618  0.100361667


 FORCES acting on ions
    electron-ion (+dipol)            ewald-force                    non-local-force                 convergence-correction
 -----------------------------------------------------------------------------------------------
   -.250E+02 0.744E+01 -.469E+02   0.279E+02 -.805E+01 0.523E+02   -.264E+01 0.810E+00 -.505E+01   0.670E-05 0.113E-04 0.222E-04
   -.509E-01 -.498E+02 0.173E+02   0.476E+00 0.548E+02 -.187E+02   0.150E+00 -.499E+01 0.183E+01   -.355E-05 0.605E-05 -.151E-05
   0.523E+02 0.776E+01 -.687E+01   -.579E+02 -.915E+01 0.747E+01   0.547E+01 0.578E+00 -.731E+00   -.187E-04 0.316E-05 -.480E-05
   -.241E+02 0.286E+02 0.387E+02   0.267E+02 -.323E+02 -.433E+02   -.266E+01 0.295E+01 0.423E+01   -.250E-05 0.261E-06 -.203E-04
   -.270E+01 0.520E+01 -.211E+01   0.277E+01 -.536E+01 0.225E+01   -.737E+00 0.143E+01 -.435E+00   -.852E-04 0.886E-04 -.251E-04
 -----------------------------------------------------------------------------------------------
   0.419E+00 -.786E+00 0.154E+00   0.000E+00 0.355E-14 0.711E-14   -.418E+00 0.786E+00 -.155E+00   -.103E-03 0.109E-03 -.295E-04


 POSITION                                       TOTAL-FORCE (eV/Angst)
 -----------------------------------------------------------------------------------
      5.49288      4.44648      5.38602         0.335488      0.197542      0.382282
      4.98606      5.63257      4.07590         0.574748      0.068210      0.425448
      3.91935      4.44098      4.57532        -0.158951     -0.814576     -0.133822
      5.47149      4.02328      3.65796        -0.083248     -0.728458     -0.374185
      4.99203      4.58845      4.43922        -0.668037      1.277283     -0.299723
 -----------------------------------------------------------------------------------
    total drift:                               -0.000069      0.000180     -0.000731


--------------------------------------------------------------------------------------------------------



  FREE ENERGIE OF THE ION-ELECTRON SYSTEM (eV)
  ---------------------------------------------------
  free  energy   TOTEN  =       -23.91280837 eV

  energy  without entropy=      -23.91280837  energy(sigma->0) =      -23.91280837



--------------------------------------------------------------------------------------------------------


    POTLOK:  cpu time    1.6583: real time    1.6623


--------------------------------------------------------------------------------------------------------


     LOOP+:  cpu time   52.8329: real time   52.9632
    4ORBIT:  cpu time    0.0000: real time    0.0000

 total amount of memory used by VASP MPI-rank0   274670. kBytes
=======================================================================

   base      :      30000. kBytes
   nonlr-proj:       1268. kBytes
   fftplans  :      86584. kBytes
   grid      :     154542. kBytes
   one-center:         15. kBytes
   wavefun   :       2261. kBytes

  
  
 General timing and accounting informations for this job:
 ========================================================
  
                  Total CPU time used (sec):       54.756
                            User time (sec):       53.167
                          System time (sec):        1.589
                         Elapsed time (sec):       54.902
  
                   Maximum memory used (kb):      388852.
                   Average memory used (kb):           0.
  
                          Minor page faults:       211346
                          Major page faults:            0
                 Voluntary context switches:          135
