LAMMPS (16 Mar 2018)
clear
units 	metal
dimension	3
boundary	p	p    p
atom_style	atomic
box         tilt large
read_data   conf.lmp
  triclinic box = (0 0 0) to (2.57003 9.17683 22.9024) with tilt (1.28501 19.2752 24.2916)
WARNING: Triclinic box skew is large (../domain.cpp:197)
  1 by 1 by 1 MPI processor grid
  reading atoms ...
  21 atoms
mass            1 1
neigh_modify    every 1 delay 0 check no
pair_style deepmd frozen_model.pb
pair_coeff
compute         mype all pe
thermo          100
thermo_style    custom step pe pxx pyy pzz pxy pxz pyz lx ly lz vol c_mype
dump            1 all custom 100 dump.relax id type xs ys zs fx fy fz
min_style       cg
minimize        1.000000e-12 1.000000e-06 5000 500000
WARNING: Using 'neigh_modify every 1 delay 0 check yes' setting during minimization (../min.cpp:168)
Neighbor list info ...
  update every 1 steps, delay 0 steps, check yes
  max neighbors/atom: 2000, page size: 100000
  master list distance cutoff = 10
  ghost atom cutoff = 10
  binsize = 5, bins = 5 7 5
  1 neighbor lists, perpetual/occasional/extra = 1 0 0
  (1) pair deepmd, perpetual
      attributes: , newton on
      pair build: full/bin/atomonly
      stencil: full/bin/3d
      bin: standard
Per MPI rank memory allocation (min/avg/max) = 5.212 | 5.212 | 5.212 Mbytes
Step PotEng Pxx Pyy Pzz Pxy Pxz Pyz Lx Ly Lz Volume c_mype 
       0    -73.68732   -19896.801    -17876.24   -7362.7307 -0.023516106  0.018625608    1483.7752    2.5700275    9.1768324    22.902353    540.14539    -73.68732 
      22   -73.778241   -15327.385   -11547.277   -0.1743335 -0.0039629012 -3.7110825e-05 -0.031012058    2.5700275    9.1768324    22.902353    540.14539   -73.778241 
Loop time of 2.39325 on 1 procs for 22 steps with 21 atoms

284.1% CPU use with 1 MPI tasks x no OpenMP threads

Minimization stats:
  Stopping criterion = energy tolerance
  Energy initial, next-to-last, final = 
        -73.6873196602     -73.7782407164     -73.7782407165
  Force two-norm initial, final = 0.956212 1.22579e-05
  Force max component initial, final = 0.419754 3.73082e-06
  Final line search alpha, max atom move = 1 3.73082e-06
  Iterations, force evaluations = 22 44

MPI task timing breakdown:
Section |  min time  |  avg time  |  max time  |%varavg| %total
---------------------------------------------------------------
Pair    | 2.3916     | 2.3916     | 2.3916     |   0.0 | 99.93
Neigh   | 0          | 0          | 0          |   0.0 |  0.00
Comm    | 0.00078249 | 0.00078249 | 0.00078249 |   0.0 |  0.03
Output  | 0          | 0          | 0          |   0.0 |  0.00
Modify  | 0          | 0          | 0          |   0.0 |  0.00
Other   |            | 0.0008442  |            |       |  0.04

Nlocal:    21 ave 21 max 21 min
Histogram: 1 0 0 0 0 0 0 0 0 0
Nghost:    1619 ave 1619 max 1619 min
Histogram: 1 0 0 0 0 0 0 0 0 0
Neighs:    0 ave 0 max 0 min
Histogram: 1 0 0 0 0 0 0 0 0 0

Total # of neighbors = 0
Ave neighs/atom = 0
Neighbor list builds = 0
Dangerous builds not checked
variable        N equal count(all)
variable        V equal vol
variable        E equal "c_mype"
variable        tmplx equal lx
variable        tmply equal ly
variable        Pxx equal pxx
variable        Pyy equal pyy
variable        Pzz equal pzz
variable        Pxy equal pxy
variable        Pxz equal pxz
variable        Pyz equal pyz
variable        Epa equal ${E}/${N}
variable        Epa equal -73.7782407164938/${N}
variable        Epa equal -73.7782407164938/21
variable        Vpa equal ${V}/${N}
variable        Vpa equal 540.145392787635/${N}
variable        Vpa equal 540.145392787635/21
variable        AA equal (${tmplx}*${tmply})
variable        AA equal (2.5700275354*${tmply})
variable        AA equal (2.5700275354*9.1768324316)
print "All done"
All done
print "Total number of atoms = ${N}"
Total number of atoms = 21
print "Final energy per atoms = ${Epa}"
Final energy per atoms = -3.51324955792828
print "Final volume per atoms = ${Vpa}"
Final volume per atoms = 25.7212091803636
print "Final Base area = ${AA}"
Final Base area = 23.5847120369637
print "Final Stress (xx yy zz xy xz yz) = ${Pxx} ${Pyy} ${Pzz} ${Pxy} ${Pxz} ${Pyz}"
Final Stress (xx yy zz xy xz yz) = -15327.3848243069 -11547.2767651764 -0.174333499936442 -0.00396290124914004 -3.71108254110992e-05 -0.0310120584707025
Total wall time: 0:00:04
