1.080440044000000022e+01 0.000000000000000000e+00 0.000000000000000000e+00 0.000000000000000000e+00 1.049750232999999966e+01 0.000000000000000000e+00 0.000000000000000000e+00 0.000000000000000000e+00 1.095603370999999981e+01
1.080440044000000022e+01 0.000000000000000000e+00 0.000000000000000000e+00 0.000000000000000000e+00 1.049750232999999966e+01 0.000000000000000000e+00 0.000000000000000000e+00 0.000000000000000000e+00 1.095603370999999981e+01
