1.528406152623037917e+00 2.262055024405213111e+00 3.791754971876255986e+00 4.365913979058126060e+00 5.882829173863406425e+00 5.464285548390919622e+00 1.027354999406156821e+00 1.706662198981576894e+00 1.602475944007530240e+00 3.963682141189577290e+00 3.976695115207542930e+00 3.215036917045115850e+00 6.766289593323377538e+00 7.323279227682186310e+00 7.395022449366008388e+00 8.059174618383018185e+00 9.176419585125698219e+00 5.758306051445964080e+00
1.528406152623037917e+00 2.262055024405213111e+00 3.791754971876255986e+00 4.365913979058126060e+00 5.882829173863406425e+00 5.464285548390919622e+00 1.027354999406156821e+00 1.706662198981576894e+00 1.602475944007530240e+00 3.963682141189577290e+00 3.976695115207542930e+00 3.215036917045115850e+00 6.766289593323377538e+00 7.323279227682186310e+00 7.395022449366008388e+00 8.059174618383018185e+00 9.176419585125698219e+00 5.758306051445964080e+00
