-8.463607047000000421e+02
-8.463607047000000421e+02
