-3.284409999999999830e-01 -1.119626999999999928e+00 3.598709999999999964e-01 4.216500000000000248e-01 -5.860149999999999526e-01 -5.375480000000000258e-01 3.821049999999999724e-01 -1.298709999999999865e-01 2.174119999999999941e-01 -2.628409999999999913e-01 -3.746000000000000198e-03 4.297409999999999841e-01 -2.124729999999999952e-01 1.839258999999999977e+00 -4.694760000000000044e-01
-2.144780000000000020e-01 5.974350000000000493e-01 1.504270000000000052e-01 -5.066629999999999745e-01 2.282899999999999860e-02 3.641190000000000260e-01 -1.615320000000000089e-01 -1.427400000000000058e-01 1.579710000000000003e-01 -2.465350000000000041e-01 9.929090000000000416e-01 -9.441979999999999817e-01 1.129207999999999990e+00 -1.470433000000000101e+00 2.716819999999999791e-01
-1.031657000000000046e+00 3.457520000000000038e-01 1.012780000000000069e-01 -2.364400000000000113e-01 -9.170599999999999585e-02 9.176099999999999535e-02 3.271830000000000016e-01 1.876740000000000075e-01 -1.912790000000000046e-01 9.705850000000000311e-01 -1.468510999999999900e+00 5.744879999999999987e-01 -2.967099999999999946e-02 1.026790000000000092e+00 -5.762479999999999825e-01
1.144428000000000001e+00 -9.931600000000000150e-02 -8.623800000000000354e-01 4.552709999999999813e-01 5.849779999999999980e-01 3.188559999999999728e-01 -3.785009999999999764e-01 1.575999999999999970e-02 4.871969999999999912e-01 -5.151090000000000391e-01 4.339999999999999969e-01 -2.762789999999999968e-01 -7.060880000000000489e-01 -9.354219999999999757e-01 3.326060000000000128e-01
1.089399999999999924e+00 -3.701450000000000018e-01 2.251219999999999888e-01 -5.584949999999999637e-01 -4.681089999999999973e-01 -5.383199999999999791e-02 1.135520000000000002e-01 -6.171090000000000186e-01 -1.509389999999999898e-01 1.782279999999999975e-01 -4.457699999999999857e-02 -6.868969999999999798e-01 -8.226849999999999996e-01 1.499940000000000051e+00 6.665459999999999718e-01
-7.022749999999999826e-01 -2.826409999999999756e-01 -2.097849999999999993e-01 -3.178999999999999881e-02 5.773570000000000091e-01 -3.554809999999999914e-01 8.357900000000000051e-02 8.904099999999999515e-02 4.182239999999999847e-01 1.545898999999999912e+00 -1.571670000000000011e-01 -1.327075000000000005e+00 -8.954140000000000432e-01 -2.265900000000000136e-01 1.474116999999999900e+00
-3.923490000000000033e-01 1.400379999999999958e-01 1.926799999999999902e-01 -2.216740000000000099e-01 -3.059129999999999905e-01 -2.746399999999999952e-01 1.552280000000000049e-01 2.611499999999999932e-01 -1.996769999999999934e-01 -7.878699999999999593e-02 8.678129999999999455e-01 2.258010000000000017e-01 5.375809999999999755e-01 -9.630880000000000551e-01 5.583599999999999675e-02
2.791660000000000252e-01 9.059850000000000403e-01 9.981609999999999649e-01 -6.539390000000000480e-01 1.799070000000000114e-01 3.237800000000000122e-01 -2.527899999999999939e-02 -3.077770000000000228e-01 1.656279999999999974e-01 -1.042119999999999991e-01 6.636729999999999574e-01 -1.756860000000000088e-01 5.042630000000000168e-01 -1.441788000000000070e+00 -1.311882999999999910e+00
-2.455380000000000063e-01 4.296280000000000099e-01 -1.790609999999999979e-01 7.477999999999999925e-02 -1.520509999999999917e-01 -2.105039999999999967e-01 5.136299999999999893e-02 6.350899999999999601e-02 2.988100000000000131e-02 -9.942140000000000422e-01 -3.106400000000000272e-01 -1.021706999999999921e+00 1.113609000000000071e+00 -3.044600000000000084e-02 1.381391999999999953e+00
2.444500000000000006e-01 8.317199999999999593e-02 -1.106365000000000043e+00 -1.825779999999999903e-01 4.535100000000000242e-02 -4.525480000000000058e-01 -3.180220000000000269e-01 -2.711899999999999866e-01 -2.033949999999999925e-01 9.591340000000000421e-01 9.140239999999999476e-01 -1.007160000000000000e-01 -7.029840000000000533e-01 -7.713569999999999593e-01 1.863024000000000013e+00
-2.944379999999999775e-01 6.710110000000000241e-01 1.687039999999999929e-01 -4.431590000000000251e-01 -3.331680000000000197e-01 -2.625930000000000208e-01 1.172320999999999946e+00 6.278400000000000647e-02 -2.375899999999999887e-02 5.113619999999999832e-01 2.110539999999999916e-01 1.894399999999999973e-01 -9.460859999999999825e-01 -6.116810000000000302e-01 -7.179199999999999471e-02
1.273009000000000057e+00 -1.867409999999999903e-01 3.223249999999999726e-01 -4.867340000000000000e-01 3.617219999999999880e-01 1.798510000000000109e-01 -2.275699999999999945e-02 -7.916279999999999983e-01 -2.515589999999999771e-01 1.104269999999999974e-01 -5.143099999999999755e-02 -3.247090000000000254e-01 -8.739449999999999719e-01 6.680770000000000319e-01 7.409300000000000608e-02
1.867570000000000063e-01 2.094600000000000073e-01 -6.309759999999999813e-01 -4.159539999999999904e-01 -6.102199999999999985e-02 9.749399999999999733e-02 2.932159999999999767e-01 3.822090000000000209e-01 -1.690959999999999963e-01 -5.822100000000000053e-01 6.646739999999999871e-01 -5.417359999999999953e-01 5.181900000000000395e-01 -1.195321000000000078e+00 1.244313999999999920e+00
-5.879159999999999942e-01 -1.304780000000000106e-01 6.529049999999999576e-01 -2.368840000000000112e-01 -5.789670000000000094e-01 -2.101599999999999996e-02 2.926700000000000135e-02 1.966469999999999885e-01 -5.030400000000000427e-01 6.538910000000000000e-01 -2.455529999999999935e-01 3.393889999999999962e-01 1.416419999999999901e-01 7.583509999999999973e-01 -4.682379999999999876e-01
1.927039999999999864e-01 8.250189999999999468e-01 1.248688999999999938e+00 1.858660000000000034e-01 -1.427110000000000045e-01 -1.136009999999999937e-01 -1.186259999999999953e-01 -4.006339999999999901e-01 2.375390000000000001e-01 3.746940000000000270e-01 1.056035000000000057e+00 -5.599110000000000475e-01 -6.346380000000000354e-01 -1.337709000000000037e+00 -8.127149999999999652e-01
-7.985499999999999543e-02 -2.892770000000000064e-01 1.215470000000000023e-01 3.225759999999999739e-01 -1.215939999999999938e-01 -1.087352000000000096e+00 2.233819999999999972e-01 -5.363139999999999574e-01 -1.152900000000000036e-01 -2.058649999999999924e-01 2.611100000000000088e-01 2.384429999999999883e-01 -2.602389999999999981e-01 6.860749999999999904e-01 8.426510000000000389e-01
6.979229999999999601e-01 1.735549999999999871e-01 1.843200000000000047e-02 2.729710000000000192e-01 3.503149999999999875e-01 7.836199999999999832e-01 -1.467489999999999906e-01 8.954090000000000105e-01 -4.893310000000000159e-01 -2.049660000000000093e-01 -4.939069999999999849e-01 -6.370860000000000412e-01 -6.191790000000000349e-01 -9.253719999999999724e-01 3.243650000000000144e-01
3.130600000000000049e-01 3.936499999999999999e-01 7.862230000000000052e-01 -3.444989999999999997e-01 5.340199999999999808e-02 -1.092810000000000031e-01 -1.927230000000000054e-01 -6.745780000000000109e-01 -9.278999999999999748e-02 -3.784790000000000099e-01 7.195089999999999542e-01 -1.619728999999999974e+00 6.026409999999999823e-01 -4.919839999999999769e-01 1.035576999999999970e+00
-6.001999999999999696e-02 6.897379999999999622e-01 7.457840000000000025e-01 -6.773740000000000316e-01 -5.340999999999999914e-02 2.921659999999999813e-01 1.659039999999999959e-01 3.362020000000000008e-01 -4.520140000000000269e-01 -2.551089999999999747e-01 -3.876189999999999913e-01 1.577200000000000130e-02 8.265989999999999727e-01 -5.849109999999999587e-01 -6.017080000000000206e-01
2.472940000000000138e-01 -4.581600000000000256e-02 -4.024699999999999805e-02 -5.647599999999999842e-02 9.417640000000000455e-01 -4.139010000000000189e-01 1.705000000000000127e-01 1.240959999999999980e-01 -2.064390000000000114e-01 1.486266000000000087e+00 8.107159999999999922e-01 -4.492329999999999934e-01 -1.847582999999999975e+00 -1.830759999999999943e+00 1.109819000000000111e+00
-8.600790000000000379e-01 3.558720000000000216e-01 7.315570000000000128e-01 -3.809879999999999933e-01 -2.125060000000000004e-01 -5.519370000000000109e-01 2.694449999999999901e-01 5.503909999999999636e-01 1.835900000000000032e-01 3.588629999999999876e-01 2.201680000000000026e-01 1.302099999999999959e-02 6.127590000000000536e-01 -9.139260000000000161e-01 -3.762309999999999821e-01
-4.989099999999999785e-02 -8.719689999999999941e-01 5.065690000000000470e-01 5.059219999999999828e-01 -4.314890000000000114e-01 -4.365249999999999964e-01 6.199770000000000003e-01 3.841359999999999775e-01 -2.349800000000000152e-02 -2.220709999999999906e-01 2.761170000000000013e-01 6.167589999999999462e-01 -8.539349999999999996e-01 6.432050000000000267e-01 -6.633050000000000335e-01
4.497389999999999999e-01 -4.870200000000000223e-02 -3.298719999999999986e-01 7.244880000000000209e-01 -2.417519999999999947e-01 9.606799999999999784e-01 1.252780000000000005e-01 2.321050000000000058e-01 1.126329999999999970e-01 -8.102310000000000345e-01 3.451190000000000091e-01 1.092723000000000111e+00 -4.892739999999999867e-01 -2.867689999999999961e-01 -1.836162999999999990e+00
5.535010000000000208e-01 8.437670000000000448e-01 7.651080000000000103e-01 -3.954389999999999850e-01 2.861599999999999908e-02 -2.339219999999999910e-01 -9.552900000000000280e-02 5.509200000000000208e-02 4.754740000000000077e-01 -5.235009999999999941e-01 5.734500000000000153e-01 5.673190000000000177e-01 4.609670000000000156e-01 -1.500925000000000065e+00 -1.573979999999999935e+00
1.526693000000000078e+00 4.954419999999999935e-01 -7.129940000000000166e-01 2.344330000000000025e-01 6.419650000000000079e-01 5.150280000000000413e-01 3.757699999999999929e-02 -2.019799999999999929e-01 3.163099999999999939e-02 -1.537590000000000068e-01 1.022919999999999940e-01 -4.686810000000000143e-01 -1.644943999999999962e+00 -1.037719999999999976e+00 6.350160000000000249e-01
-3.618450000000000277e-01 -1.451028999999999902e+00 -1.772620000000000029e-01 4.355580000000000007e-01 1.320799999999999925e-02 -3.494610000000000216e-01 4.991860000000000186e-01 -1.209680000000000061e-01 3.942149999999999821e-01 -2.232879999999999865e-01 -1.560699999999999865e-01 5.361909999999999732e-01 -3.496110000000000051e-01 1.714858999999999911e+00 -4.036839999999999873e-01
2.798559999999999937e-01 -7.196199999999999819e-02 5.610349999999999504e-01 -6.554740000000000011e-01 1.740450000000000053e-01 -1.061933000000000016e+00 -2.326689999999999869e-01 -5.889750000000000263e-01 2.382340000000000013e-01 -3.775000000000000022e-01 1.864359999999999906e-01 -3.132719999999999949e-01 9.857890000000000263e-01 3.004569999999999741e-01 5.759360000000000035e-01
2.170420000000000127e-01 6.342499999999999805e-01 6.766400000000000192e-01 -2.000909999999999911e-01 -2.056920000000000137e-01 1.929200000000000012e-02 -2.624900000000000150e-02 -9.999500000000000055e-02 3.838690000000000158e-01 -1.180599999999999983e-01 1.026855000000000073e+00 1.463579999999999881e-01 1.273579999999999990e-01 -1.355417000000000094e+00 -1.226158000000000081e+00
-1.967800000000000105e-01 7.790600000000000303e-02 1.355909999999999893e-01 7.288289999999999491e-01 -5.175899999999999945e-01 9.084299999999999320e-02 -5.514449999999999630e-01 -1.038990000000000052e-01 6.330059999999999576e-01 7.508380000000000054e-01 6.462059999999999471e-01 1.350818999999999992e+00 -7.314429999999999543e-01 -1.026230000000000059e-01 -2.210259999999999891e+00
-9.615999999999999548e-02 4.158490000000000242e-01 -1.149116000000000026e+00 -1.321560999999999986e+00 3.638129999999999975e-01 -2.696499999999999939e-02 -4.078400000000000081e-02 -3.027000000000000246e-01 -2.221130000000000049e-01 1.950880000000000114e-01 -2.115720000000000101e-01 5.013220000000000454e-01 1.263416000000000095e+00 -2.653909999999999880e-01 8.968720000000000026e-01
