<UPF version="2.0.1">
  <PP_INFO>

 This pseudopotential file has been produced using the code
 ONCVPSP  (Optimized Norm-Conservinng Vanderbilt PSeudopotential)
 scalar-relativistic version 2.1.1, 03/26/2014 by D. R. Hamann
 The code is available through a link at URL www.mat-simresearch.com.
 Documentation with the package provides a full discription of the
 input data below.


 While it is not required under the terms of the GNU GPL, it is
 suggested that you cite D. R. Hamann, Phys. Rev. B 88, 085117 (2013)
 in any publication using these pseudopotentials.


 Copyright 2015 The Regents of the University of California
 
 This work is licensed under the Creative Commons Attribution-ShareAlike 
 4.0 International License. To view a copy of this license, visit 
 http://creativecommons.org/licenses/by-sa/4.0/ or send a letter to 
 Creative Commons, PO Box 1866, Mountain View, CA 94042, USA.
 
 This pseudopotential is part of the Schlipf-Gygi norm-conserving 
 pseudopotential library. Its construction parameters were tuned to 
 reproduce materials of a training set with very high accuracy and 
 should be suitable as a general purpose pseudopotential to treat a 
 variety of different compounds. For details of the construction and 
 testing of the pseudopotential please refer to:
 
 [insert reference to paper here]
 
 We kindly ask that you include this reference in all publications 
 associated to this pseudopotential.


    <PP_INPUTFILE>
# ATOM AND REFERENCE CONFIGURATION
# atsym  z    nc    nv    iexc   psfile
  Cu 29.00     3     4     4      upf
#
#   n    l    f        energy (Ha)
    1    0    2.00
    2    0    2.00
    2    1    6.00
    3    0    2.00
    3    1    6.00
    4    0    2.00
    3    2    9.00
#
# PSEUDOPOTENTIAL AND OPTIMIZATION
# lmax
    2
#
#   l,   rc,     ep,   ncon, nbas, qcut
    0   1.91598  -4.40982    5    8   6.64634
    1   1.87081  -2.84099    5    8   7.69831
    2   1.89326  -0.34980    5    8   8.82467
#
# LOCAL POTENTIAL
# lloc, lpopt,  rc(5),   dvloc0
    4    5   1.68037      0.00000
#
# VANDERBILT-KLEINMAN-BYLANDER PROJECTORs
# l, nproj, debl
    0    2   4.19623
    1    2   2.79795
    2    2   0.83231
#
# MODEL CORE CHARGE
# icmod, fcfact
    0   0.00000
#
# LOG DERIVATIVE ANALYSIS
# epsh1, epsh2, depsh
   -5.00    3.00    0.02
#
# OUTPUT GRID
# rlmax, drl
    6.00    0.01
#
# TEST CONFIGURATIONS
# ncnf
    0
# nvcnf
#   n    l    f
    </PP_INPUTFILE>
  </PP_INFO>
  <!--                               -->
  <!-- END OF HUMAN READABLE SECTION -->
  <!--                               -->
    <PP_HEADER
       generated="Generated using ONCVPSP code by D. R. Hamann"
       author="Martin Schlipf and Francois Gygi"
       date="150105"
       comment=""
       element="Cu"
       pseudo_type="NC"
       relativistic="scalar"
       is_ultrasoft="F"
       is_paw="F"
       is_coulomb="F"
       has_so="F"
       has_wfc="F"
       has_gipaw="F"
       core_correction="F"
       functional="PBE"
       z_valence="   19.00"
       total_psenergy="  -1.82394100797E+02"
       rho_cutoff="   6.01000000000E+00"
       l_max="2"
       l_local="-1"
       mesh_size="   602"
       number_of_wfc="0"
       number_of_proj="6"/>
 <PP_MESH>
   <PP_R type="real"  size=" 602" columns="8">
    0.0000    0.0100    0.0200    0.0300    0.0400    0.0500    0.0600    0.0700
    0.0800    0.0900    0.1000    0.1100    0.1200    0.1300    0.1400    0.1500
    0.1600    0.1700    0.1800    0.1900    0.2000    0.2100    0.2200    0.2300
    0.2400    0.2500    0.2600    0.2700    0.2800    0.2900    0.3000    0.3100
    0.3200    0.3300    0.3400    0.3500    0.3600    0.3700    0.3800    0.3900
    0.4000    0.4100    0.4200    0.4300    0.4400    0.4500    0.4600    0.4700
    0.4800    0.4900    0.5000    0.5100    0.5200    0.5300    0.5400    0.5500
    0.5600    0.5700    0.5800    0.5900    0.6000    0.6100    0.6200    0.6300
    0.6400    0.6500    0.6600    0.6700    0.6800    0.6900    0.7000    0.7100
    0.7200    0.7300    0.7400    0.7500    0.7600    0.7700    0.7800    0.7900
    0.8000    0.8100    0.8200    0.8300    0.8400    0.8500    0.8600    0.8700
    0.8800    0.8900    0.9000    0.9100    0.9200    0.9300    0.9400    0.9500
    0.9600    0.9700    0.9800    0.9900    1.0000    1.0100    1.0200    1.0300
    1.0400    1.0500    1.0600    1.0700    1.0800    1.0900    1.1000    1.1100
    1.1200    1.1300    1.1400    1.1500    1.1600    1.1700    1.1800    1.1900
    1.2000    1.2100    1.2200    1.2300    1.2400    1.2500    1.2600    1.2700
    1.2800    1.2900    1.3000    1.3100    1.3200    1.3300    1.3400    1.3500
    1.3600    1.3700    1.3800    1.3900    1.4000    1.4100    1.4200    1.4300
    1.4400    1.4500    1.4600    1.4700    1.4800    1.4900    1.5000    1.5100
    1.5200    1.5300    1.5400    1.5500    1.5600    1.5700    1.5800    1.5900
    1.6000    1.6100    1.6200    1.6300    1.6400    1.6500    1.6600    1.6700
    1.6800    1.6900    1.7000    1.7100    1.7200    1.7300    1.7400    1.7500
    1.7600    1.7700    1.7800    1.7900    1.8000    1.8100    1.8200    1.8300
    1.8400    1.8500    1.8600    1.8700    1.8800    1.8900    1.9000    1.9100
    1.9200    1.9300    1.9400    1.9500    1.9600    1.9700    1.9800    1.9900
    2.0000    2.0100    2.0200    2.0300    2.0400    2.0500    2.0600    2.0700
    2.0800    2.0900    2.1000    2.1100    2.1200    2.1300    2.1400    2.1500
    2.1600    2.1700    2.1800    2.1900    2.2000    2.2100    2.2200    2.2300
    2.2400    2.2500    2.2600    2.2700    2.2800    2.2900    2.3000    2.3100
    2.3200    2.3300    2.3400    2.3500    2.3600    2.3700    2.3800    2.3900
    2.4000    2.4100    2.4200    2.4300    2.4400    2.4500    2.4600    2.4700
    2.4800    2.4900    2.5000    2.5100    2.5200    2.5300    2.5400    2.5500
    2.5600    2.5700    2.5800    2.5900    2.6000    2.6100    2.6200    2.6300
    2.6400    2.6500    2.6600    2.6700    2.6800    2.6900    2.7000    2.7100
    2.7200    2.7300    2.7400    2.7500    2.7600    2.7700    2.7800    2.7900
    2.8000    2.8100    2.8200    2.8300    2.8400    2.8500    2.8600    2.8700
    2.8800    2.8900    2.9000    2.9100    2.9200    2.9300    2.9400    2.9500
    2.9600    2.9700    2.9800    2.9900    3.0000    3.0100    3.0200    3.0300
    3.0400    3.0500    3.0600    3.0700    3.0800    3.0900    3.1000    3.1100
    3.1200    3.1300    3.1400    3.1500    3.1600    3.1700    3.1800    3.1900
    3.2000    3.2100    3.2200    3.2300    3.2400    3.2500    3.2600    3.2700
    3.2800    3.2900    3.3000    3.3100    3.3200    3.3300    3.3400    3.3500
    3.3600    3.3700    3.3800    3.3900    3.4000    3.4100    3.4200    3.4300
    3.4400    3.4500    3.4600    3.4700    3.4800    3.4900    3.5000    3.5100
    3.5200    3.5300    3.5400    3.5500    3.5600    3.5700    3.5800    3.5900
    3.6000    3.6100    3.6200    3.6300    3.6400    3.6500    3.6600    3.6700
    3.6800    3.6900    3.7000    3.7100    3.7200    3.7300    3.7400    3.7500
    3.7600    3.7700    3.7800    3.7900    3.8000    3.8100    3.8200    3.8300
    3.8400    3.8500    3.8600    3.8700    3.8800    3.8900    3.9000    3.9100
    3.9200    3.9300    3.9400    3.9500    3.9600    3.9700    3.9800    3.9900
    4.0000    4.0100    4.0200    4.0300    4.0400    4.0500    4.0600    4.0700
    4.0800    4.0900    4.1000    4.1100    4.1200    4.1300    4.1400    4.1500
    4.1600    4.1700    4.1800    4.1900    4.2000    4.2100    4.2200    4.2300
    4.2400    4.2500    4.2600    4.2700    4.2800    4.2900    4.3000    4.3100
    4.3200    4.3300    4.3400    4.3500    4.3600    4.3700    4.3800    4.3900
    4.4000    4.4100    4.4200    4.4300    4.4400    4.4500    4.4600    4.4700
    4.4800    4.4900    4.5000    4.5100    4.5200    4.5300    4.5400    4.5500
    4.5600    4.5700    4.5800    4.5900    4.6000    4.6100    4.6200    4.6300
    4.6400    4.6500    4.6600    4.6700    4.6800    4.6900    4.7000    4.7100
    4.7200    4.7300    4.7400    4.7500    4.7600    4.7700    4.7800    4.7900
    4.8000    4.8100    4.8200    4.8300    4.8400    4.8500    4.8600    4.8700
    4.8800    4.8900    4.9000    4.9100    4.9200    4.9300    4.9400    4.9500
    4.9600    4.9700    4.9800    4.9900    5.0000    5.0100    5.0200    5.0300
    5.0400    5.0500    5.0600    5.0700    5.0800    5.0900    5.1000    5.1100
    5.1200    5.1300    5.1400    5.1500    5.1600    5.1700    5.1800    5.1900
    5.2000    5.2100    5.2200    5.2300    5.2400    5.2500    5.2600    5.2700
    5.2800    5.2900    5.3000    5.3100    5.3200    5.3300    5.3400    5.3500
    5.3600    5.3700    5.3800    5.3900    5.4000    5.4100    5.4200    5.4300
    5.4400    5.4500    5.4600    5.4700    5.4800    5.4900    5.5000    5.5100
    5.5200    5.5300    5.5400    5.5500    5.5600    5.5700    5.5800    5.5900
    5.6000    5.6100    5.6200    5.6300    5.6400    5.6500    5.6600    5.6700
    5.6800    5.6900    5.7000    5.7100    5.7200    5.7300    5.7400    5.7500
    5.7600    5.7700    5.7800    5.7900    5.8000    5.8100    5.8200    5.8300
    5.8400    5.8500    5.8600    5.8700    5.8800    5.8900    5.9000    5.9100
    5.9200    5.9300    5.9400    5.9500    5.9600    5.9700    5.9800    5.9900
    6.0000    6.0100
   </PP_R>
   <PP_RAB type="real"  size=" 602" columns="8">
    0.0100    0.0100    0.0100    0.0100    0.0100    0.0100    0.0100    0.0100
    0.0100    0.0100    0.0100    0.0100    0.0100    0.0100    0.0100    0.0100
    0.0100    0.0100    0.0100    0.0100    0.0100    0.0100    0.0100    0.0100
    0.0100    0.0100    0.0100    0.0100    0.0100    0.0100    0.0100    0.0100
    0.0100    0.0100    0.0100    0.0100    0.0100    0.0100    0.0100    0.0100
    0.0100    0.0100    0.0100    0.0100    0.0100    0.0100    0.0100    0.0100
    0.0100    0.0100    0.0100    0.0100    0.0100    0.0100    0.0100    0.0100
    0.0100    0.0100    0.0100    0.0100    0.0100    0.0100    0.0100    0.0100
    0.0100    0.0100    0.0100    0.0100    0.0100    0.0100    0.0100    0.0100
    0.0100    0.0100    0.0100    0.0100    0.0100    0.0100    0.0100    0.0100
    0.0100    0.0100    0.0100    0.0100    0.0100    0.0100    0.0100    0.0100
    0.0100    0.0100    0.0100    0.0100    0.0100    0.0100    0.0100    0.0100
    0.0100    0.0100    0.0100    0.0100    0.0100    0.0100    0.0100    0.0100
    0.0100    0.0100    0.0100    0.0100    0.0100    0.0100    0.0100    0.0100
    0.0100    0.0100    0.0100    0.0100    0.0100    0.0100    0.0100    0.0100
    0.0100    0.0100    0.0100    0.0100    0.0100    0.0100    0.0100    0.0100
    0.0100    0.0100    0.0100    0.0100    0.0100    0.0100    0.0100    0.0100
    0.0100    0.0100    0.0100    0.0100    0.0100    0.0100    0.0100    0.0100
    0.0100    0.0100    0.0100    0.0100    0.0100    0.0100    0.0100    0.0100
    0.0100    0.0100    0.0100    0.0100    0.0100    0.0100    0.0100    0.0100
    0.0100    0.0100    0.0100    0.0100    0.0100    0.0100    0.0100    0.0100
    0.0100    0.0100    0.0100    0.0100    0.0100    0.0100    0.0100    0.0100
    0.0100    0.0100    0.0100    0.0100    0.0100    0.0100    0.0100    0.0100
    0.0100    0.0100    0.0100    0.0100    0.0100    0.0100    0.0100    0.0100
    0.0100    0.0100    0.0100    0.0100    0.0100    0.0100    0.0100    0.0100
    0.0100    0.0100    0.0100    0.0100    0.0100    0.0100    0.0100    0.0100
    0.0100    0.0100    0.0100    0.0100    0.0100    0.0100    0.0100    0.0100
    0.0100    0.0100    0.0100    0.0100    0.0100    0.0100    0.0100    0.0100
    0.0100    0.0100    0.0100    0.0100    0.0100    0.0100    0.0100    0.0100
    0.0100    0.0100    0.0100    0.0100    0.0100    0.0100    0.0100    0.0100
    0.0100    0.0100    0.0100    0.0100    0.0100    0.0100    0.0100    0.0100
    0.0100    0.0100    0.0100    0.0100    0.0100    0.0100    0.0100    0.0100
    0.0100    0.0100    0.0100    0.0100    0.0100    0.0100    0.0100    0.0100
    0.0100    0.0100    0.0100    0.0100    0.0100    0.0100    0.0100    0.0100
    0.0100    0.0100    0.0100    0.0100    0.0100    0.0100    0.0100    0.0100
    0.0100    0.0100    0.0100    0.0100    0.0100    0.0100    0.0100    0.0100
    0.0100    0.0100    0.0100    0.0100    0.0100    0.0100    0.0100    0.0100
    0.0100    0.0100    0.0100    0.0100    0.0100    0.0100    0.0100    0.0100
    0.0100    0.0100    0.0100    0.0100    0.0100    0.0100    0.0100    0.0100
    0.0100    0.0100    0.0100    0.0100    0.0100    0.0100    0.0100    0.0100
    0.0100    0.0100    0.0100    0.0100    0.0100    0.0100    0.0100    0.0100
    0.0100    0.0100    0.0100    0.0100    0.0100    0.0100    0.0100    0.0100
    0.0100    0.0100    0.0100    0.0100    0.0100    0.0100    0.0100    0.0100
    0.0100    0.0100    0.0100    0.0100    0.0100    0.0100    0.0100    0.0100
    0.0100    0.0100    0.0100    0.0100    0.0100    0.0100    0.0100    0.0100
    0.0100    0.0100    0.0100    0.0100    0.0100    0.0100    0.0100    0.0100
    0.0100    0.0100    0.0100    0.0100    0.0100    0.0100    0.0100    0.0100
    0.0100    0.0100    0.0100    0.0100    0.0100    0.0100    0.0100    0.0100
    0.0100    0.0100    0.0100    0.0100    0.0100    0.0100    0.0100    0.0100
    0.0100    0.0100    0.0100    0.0100    0.0100    0.0100    0.0100    0.0100
    0.0100    0.0100    0.0100    0.0100    0.0100    0.0100    0.0100    0.0100
    0.0100    0.0100    0.0100    0.0100    0.0100    0.0100    0.0100    0.0100
    0.0100    0.0100    0.0100    0.0100    0.0100    0.0100    0.0100    0.0100
    0.0100    0.0100    0.0100    0.0100    0.0100    0.0100    0.0100    0.0100
    0.0100    0.0100    0.0100    0.0100    0.0100    0.0100    0.0100    0.0100
    0.0100    0.0100    0.0100    0.0100    0.0100    0.0100    0.0100    0.0100
    0.0100    0.0100    0.0100    0.0100    0.0100    0.0100    0.0100    0.0100
    0.0100    0.0100    0.0100    0.0100    0.0100    0.0100    0.0100    0.0100
    0.0100    0.0100    0.0100    0.0100    0.0100    0.0100    0.0100    0.0100
    0.0100    0.0100    0.0100    0.0100    0.0100    0.0100    0.0100    0.0100
    0.0100    0.0100    0.0100    0.0100    0.0100    0.0100    0.0100    0.0100
    0.0100    0.0100    0.0100    0.0100    0.0100    0.0100    0.0100    0.0100
    0.0100    0.0100    0.0100    0.0100    0.0100    0.0100    0.0100    0.0100
    0.0100    0.0100    0.0100    0.0100    0.0100    0.0100    0.0100    0.0100
    0.0100    0.0100    0.0100    0.0100    0.0100    0.0100    0.0100    0.0100
    0.0100    0.0100    0.0100    0.0100    0.0100    0.0100    0.0100    0.0100
    0.0100    0.0100    0.0100    0.0100    0.0100    0.0100    0.0100    0.0100
    0.0100    0.0100    0.0100    0.0100    0.0100    0.0100    0.0100    0.0100
    0.0100    0.0100    0.0100    0.0100    0.0100    0.0100    0.0100    0.0100
    0.0100    0.0100    0.0100    0.0100    0.0100    0.0100    0.0100    0.0100
    0.0100    0.0100    0.0100    0.0100    0.0100    0.0100    0.0100    0.0100
    0.0100    0.0100    0.0100    0.0100    0.0100    0.0100    0.0100    0.0100
    0.0100    0.0100    0.0100    0.0100    0.0100    0.0100    0.0100    0.0100
    0.0100    0.0100    0.0100    0.0100    0.0100    0.0100    0.0100    0.0100
    0.0100    0.0100    0.0100    0.0100    0.0100    0.0100    0.0100    0.0100
    0.0100    0.0100
   </PP_RAB>
 </PP_MESH>
  <PP_LOCAL type="real"  size=" 602" columns="4">
   -5.3426582174E+01   -5.3426294377E+01   -5.3425961808E+01   -5.3424900387E+01
   -5.3422426035E+01   -5.3417715775E+01   -5.3409905798E+01   -5.3398178823E+01
   -5.3381828984E+01   -5.3360299731E+01   -5.3333196482E+01   -5.3300279635E+01
   -5.3261444874E+01   -5.3216697269E+01   -5.3166124132E+01   -5.3109869931E+01
   -5.3048114979E+01   -5.2981058499E+01   -5.2908905946E+01   -5.2831860037E+01
   -5.2750114808E+01   -5.2663852007E+01   -5.2573239191E+01   -5.2478429016E+01
   -5.2379559299E+01   -5.2276753572E+01   -5.2170121864E+01   -5.2059761604E+01
   -5.1945758514E+01   -5.1828187425E+01   -5.1707112995E+01   -5.1582590299E+01
   -5.1454665278E+01   -5.1323375078E+01   -5.1188748208E+01   -5.1050804676E+01
   -5.0909555917E+01   -5.0765004764E+01   -5.0617145278E+01   -5.0465962611E+01
   -5.0311432906E+01   -5.0153523259E+01   -4.9992191821E+01   -4.9827388083E+01
   -4.9659053432E+01   -4.9487122005E+01   -4.9311521912E+01   -4.9132176862E+01
   -4.8949008194E+01   -4.8761937290E+01   -4.8570888428E+01   -4.8375791857E+01
   -4.8176586907E+01   -4.7973225595E+01   -4.7765675500E+01   -4.7553922680E+01
   -4.7337974384E+01   -4.7117860252E+01   -4.6893634241E+01   -4.6665374091E+01
   -4.6433181528E+01   -4.6197180816E+01   -4.5957516490E+01   -4.5714351909E+01
   -4.5467865503E+01   -4.5218248176E+01   -4.4965700467E+01   -4.4710429177E+01
   -4.4452644788E+01   -4.4192559010E+01   -4.3930382559E+01   -4.3666323442E+01
   -4.3400585582E+01   -4.3133367841E+01   -4.2864863139E+01   -4.2595258094E+01
   -4.2324732834E+01   -4.2053460900E+01   -4.1781609312E+01   -4.1509338706E+01
   -4.1236803512E+01   -4.0964152154E+01   -4.0691527237E+01   -4.0419065707E+01
   -4.0146898983E+01   -3.9875153036E+01   -3.9603948438E+01   -3.9333400352E+01
   -3.9063618490E+01   -3.8794707034E+01   -3.8526764526E+01   -3.8259883728E+01
   -3.7994151478E+01   -3.7729648530E+01   -3.7466449392E+01   -3.7204622186E+01
   -3.6944228512E+01   -3.6685323478E+01   -3.6427955409E+01   -3.6172165719E+01
   -3.5917989265E+01   -3.5665454317E+01   -3.5414582729E+01   -3.5165390256E+01
   -3.4917886949E+01   -3.4672076784E+01   -3.4427959116E+01   -3.4185528943E+01
   -3.3944777614E+01   -3.3705693367E+01   -3.3468261919E+01   -3.3232467824E+01
   -3.2998295027E+01   -3.2765727370E+01   -3.2534749972E+01   -3.2305349732E+01
   -3.2077515752E+01   -3.1851239765E+01   -3.1626517899E+01   -3.1403349656E+01
   -3.1181737753E+01   -3.0961690185E+01   -3.0743218799E+01   -3.0526338493E+01
   -3.0311068330E+01   -3.0097430831E+01   -2.9885450327E+01   -2.9675153688E+01
   -2.9466569241E+01   -2.9259725665E+01   -2.9054652111E+01   -2.8851376411E+01
   -2.8649925765E+01   -2.8450324904E+01   -2.8252595277E+01   -2.8056757417E+01
   -2.7862825340E+01   -2.7670810881E+01   -2.7480722351E+01   -2.7292561316E+01
   -2.7106328587E+01   -2.6922017939E+01   -2.6739621046E+01   -2.6559126689E+01
   -2.6380519400E+01   -2.6203783663E+01   -2.6028900850E+01   -2.5855852950E+01
   -2.5684621173E+01   -2.5515188486E+01   -2.5347537505E+01   -2.5181655156E+01
   -2.5017527249E+01   -2.4855145494E+01   -2.4694500883E+01   -2.4535589022E+01
   -2.4378406075E+01   -2.4222950826E+01   -2.4069222892E+01   -2.3917223049E+01
   -2.3766951774E+01   -2.3618410314E+01   -2.3471597242E+01   -2.3326512578E+01
   -2.3183150642E+01   -2.3041508540E+01   -2.2901574760E+01   -2.2763341960E+01
   -2.2626792234E+01   -2.2491912209E+01   -2.2358679411E+01   -2.2227075054E+01
   -2.2097073916E+01   -2.1968653481E+01   -2.1841786219E+01   -2.1716446366E+01
   -2.1592604952E+01   -2.1470233702E+01   -2.1349303058E+01   -2.1229783305E+01
   -2.1111644969E+01   -2.0994858208E+01   -2.0879394077E+01   -2.0765224065E+01
   -2.0652319984E+01   -2.0540656146E+01   -2.0430205204E+01   -2.0320945362E+01
   -2.0212851056E+01   -2.0105903641E+01   -2.0000081690E+01   -1.9895367504E+01
   -1.9791743952E+01   -1.9689193852E+01   -1.9587701430E+01   -1.9487250203E+01
   -1.9387824476E+01   -1.9289407683E+01   -1.9191985062E+01   -1.9095541619E+01
   -1.9000062575E+01   -1.8905533890E+01   -1.8811940750E+01   -1.8719270033E+01
   -1.8627507725E+01   -1.8536640709E+01   -1.8446656081E+01   -1.8357540607E+01
   -1.8269282320E+01   -1.8181868417E+01   -1.8095287126E+01   -1.8009526658E+01
   -1.7924575012E+01   -1.7840421318E+01   -1.7757053936E+01   -1.7674462131E+01
   -1.7592635252E+01   -1.7511562251E+01   -1.7431233301E+01   -1.7351637871E+01
   -1.7272765997E+01   -1.7194608147E+01   -1.7117154118E+01   -1.7040394932E+01
   -1.6964321179E+01   -1.6888923435E+01   -1.6814193163E+01   -1.6740121201E+01
   -1.6666698971E+01   -1.6593918208E+01   -1.6521770059E+01   -1.6450246702E+01
   -1.6379340077E+01   -1.6309041818E+01   -1.6239344606E+01   -1.6170240587E+01
   -1.6101722034E+01   -1.6033781901E+01   -1.5966412619E+01   -1.5899607030E+01
   -1.5833358351E+01   -1.5767659302E+01   -1.5702503229E+01   -1.5637883607E+01
   -1.5573793448E+01   -1.5510226537E+01   -1.5447176608E+01   -1.5384636964E+01
   -1.5322601770E+01   -1.5261065020E+01   -1.5200020306E+01   -1.5139462120E+01
   -1.5079384717E+01   -1.5019781975E+01   -1.4960648661E+01   -1.4901979295E+01
   -1.4843768039E+01   -1.4786009887E+01   -1.4728699627E+01   -1.4671831701E+01
   -1.4615401289E+01   -1.4559403444E+01   -1.4503832891E+01   -1.4448684949E+01
   -1.4393954942E+01   -1.4339637877E+01   -1.4285729174E+01   -1.4232224423E+01
   -1.4179118919E+01   -1.4126408144E+01   -1.4074087955E+01   -1.4022153934E+01
   -1.3970601593E+01   -1.3919427052E+01   -1.3868626170E+01   -1.3818194502E+01
   -1.3768128382E+01   -1.3718423876E+01   -1.3669076816E+01   -1.3620083488E+01
   -1.3571440235E+01   -1.3523143181E+01   -1.3475188528E+01   -1.3427572892E+01
   -1.3380292686E+01   -1.3333344032E+01   -1.3286723785E+01   -1.3240428530E+01
   -1.3194454673E+01   -1.3148798923E+01   -1.3103458150E+01   -1.3058429055E+01
   -1.3013708180E+01   -1.2969292664E+01   -1.2925179399E+01   -1.2881365091E+01
   -1.2837846794E+01   -1.2794621652E+01   -1.2751686671E+01   -1.2709038683E+01
   -1.2666675104E+01   -1.2624593108E+01   -1.2582789721E+01   -1.2541262199E+01
   -1.2500007979E+01   -1.2459024364E+01   -1.2418308424E+01   -1.2377857787E+01
   -1.2337669908E+01   -1.2297742151E+01   -1.2258071847E+01   -1.2218656740E+01
   -1.2179494381E+01   -1.2140582179E+01   -1.2101917765E+01   -1.2063498925E+01
   -1.2025323320E+01   -1.1987388421E+01   -1.1949692118E+01   -1.1912232238E+01
   -1.1875006554E+01   -1.1838012604E+01   -1.1801248498E+01   -1.1764712114E+01
   -1.1728401288E+01   -1.1692313755E+01   -1.1656447687E+01   -1.1620801059E+01
   -1.1585371784E+01   -1.1550157756E+01   -1.1515157215E+01   -1.1480368230E+01
   -1.1445788794E+01   -1.1411416933E+01   -1.1377250959E+01   -1.1343289031E+01
   -1.1309529228E+01   -1.1275969677E+01   -1.1242608768E+01   -1.1209444747E+01
   -1.1176475785E+01   -1.1143700083E+01   -1.1111116113E+01   -1.1078722203E+01
   -1.1046516625E+01   -1.1014497623E+01   -1.0982663760E+01   -1.0951013442E+01
   -1.0919545045E+01   -1.0888256836E+01   -1.0857147470E+01   -1.0826215427E+01
   -1.0795459188E+01   -1.0764877042E+01   -1.0734467715E+01   -1.0704229769E+01
   -1.0674161753E+01   -1.0644262073E+01   -1.0614529418E+01   -1.0584962461E+01
   -1.0555559820E+01   -1.0526320023E+01   -1.0497241701E+01   -1.0468323642E+01
   -1.0439564528E+01   -1.0410963017E+01   -1.0382517662E+01   -1.0354227368E+01
   -1.0326090879E+01   -1.0298106940E+01   -1.0270274155E+01   -1.0242591403E+01
   -1.0215057533E+01   -1.0187671348E+01   -1.0160431591E+01   -1.0133337018E+01
   -1.0106386610E+01   -1.0079579224E+01   -1.0052913720E+01   -1.0026388809E+01
   -1.0000003510E+01   -9.9737567629E+00   -9.9476474799E+00   -9.9216745200E+00
   -9.8958367406E+00   -9.8701332243E+00   -9.8445629333E+00   -9.8191248298E+00
   -9.7938177571E+00   -9.7686407790E+00   -9.7435929564E+00   -9.7186732998E+00
   -9.6938808100E+00   -9.6692143576E+00   -9.6446731507E+00   -9.6202562459E+00
   -9.5959626998E+00   -9.5717915111E+00   -9.5477417054E+00   -9.5238124870E+00
   -9.5000029564E+00   -9.4763122142E+00   -9.4527392671E+00   -9.4292832693E+00
   -9.4059434278E+00   -9.3827188848E+00   -9.3596087830E+00   -9.3366121461E+00
   -9.3137282310E+00   -9.2909562547E+00   -9.2682953998E+00   -9.2457448485E+00
   -9.2233036499E+00   -9.2009711389E+00   -9.1787465506E+00   -9.1566291057E+00
   -9.1346180246E+00   -9.1127123885E+00   -9.0909115875E+00   -9.0692148827E+00
   -9.0476215311E+00   -9.0261307894E+00   -9.0047417774E+00   -8.9834539190E+00
   -8.9622665090E+00   -8.9411788388E+00   -8.9201901999E+00   -8.8992997563E+00
   -8.8785069463E+00   -8.8578111049E+00   -8.8372115567E+00   -8.8167076260E+00
   -8.7962985273E+00   -8.7759836942E+00   -8.7557625085E+00   -8.7356343264E+00
   -8.7155985036E+00   -8.6956543109E+00   -8.6758011594E+00   -8.6560384837E+00
   -8.6363656699E+00   -8.6167821039E+00   -8.5972871187E+00   -8.5778800862E+00
   -8.5585604990E+00   -8.5393277715E+00   -8.5201813185E+00   -8.5011205412E+00
   -8.4821447573E+00   -8.4632535211E+00   -8.4444462743E+00   -8.4257224590E+00
   -8.4070815169E+00   -8.3885227982E+00   -8.3700458224E+00   -8.3516500901E+00
   -8.3333350692E+00   -8.3151002276E+00   -8.2969449946E+00   -8.2788688006E+00
   -8.2608712216E+00   -8.2429517500E+00   -8.2251098786E+00   -8.2073451001E+00
   -8.1896568103E+00   -8.1720445961E+00   -8.1545079952E+00   -8.1370465239E+00
   -8.1196596986E+00   -8.1023470047E+00   -8.0851079098E+00   -8.0679420377E+00
   -8.0508489272E+00   -8.0338281172E+00   -8.0168791465E+00   -8.0000014816E+00
   -7.9831947055E+00   -7.9664584200E+00   -7.9497921853E+00   -7.9331955617E+00
   -7.9166681096E+00   -7.9002092862E+00   -7.8838187676E+00   -7.8674961409E+00
   -7.8512409868E+00   -7.8350528862E+00   -7.8189313996E+00   -7.8028760441E+00
   -7.7868865071E+00   -7.7709623891E+00   -7.7551032902E+00   -7.7393088110E+00
   -7.7235785140E+00   -7.7079119754E+00   -7.6923088822E+00   -7.6767688535E+00
   -7.6612915080E+00   -7.6458764649E+00   -7.6305232957E+00   -7.6152316183E+00
   -7.6000011254E+00   -7.5848314538E+00   -7.5697222403E+00   -7.5546731215E+00
   -7.5396836851E+00   -7.5247535727E+00   -7.5098824899E+00   -7.4950700904E+00
   -7.4803160278E+00   -7.4656199557E+00   -7.4509814841E+00   -7.4364002621E+00
   -7.4218760145E+00   -7.4074084111E+00   -7.3929971216E+00   -7.3786418157E+00
   -7.3643421317E+00   -7.3500977112E+00   -7.3359083038E+00   -7.3217735947E+00
   -7.3076932690E+00   -7.2936670119E+00   -7.2796944954E+00   -7.2657753396E+00
   -7.2519093243E+00   -7.2380961493E+00   -7.2243355144E+00   -7.2106271195E+00
   -7.1969706644E+00   -7.1833657692E+00   -7.1698122141E+00   -7.1563097242E+00
   -7.1428580133E+00   -7.1294567952E+00   -7.1161057839E+00   -7.1028046445E+00
   -7.0895531051E+00   -7.0763509340E+00   -7.0631978584E+00   -7.0500936054E+00
   -7.0370379022E+00   -7.0240304649E+00   -7.0110709574E+00   -6.9981591952E+00
   -6.9852949182E+00   -6.9724778661E+00   -6.9597077789E+00   -6.9469843965E+00
   -6.9343074043E+00   -6.9216765728E+00   -6.9090916852E+00   -6.8965524934E+00
   -6.8840587494E+00   -6.8716102053E+00   -6.8592066073E+00   -6.8468476369E+00
   -6.8345331343E+00   -6.8222628630E+00   -6.8100365867E+00   -6.7978540688E+00
   -6.7857150730E+00   -6.7736193283E+00   -6.7615665898E+00   -6.7495566793E+00
   -6.7375893714E+00   -6.7256644407E+00   -6.7137816615E+00   -6.7019408087E+00
   -6.6901416016E+00   -6.6783838523E+00   -6.6666673704E+00   -6.6549919411E+00
   -6.6433573493E+00   -6.6317633802E+00   -6.6202098187E+00   -6.6086963818E+00
   -6.5972229223E+00   -6.5857892444E+00   -6.5743951430E+00   -6.5630404133E+00
   -6.5517248504E+00   -6.5404482493E+00   -6.5292103304E+00   -6.5180109724E+00
   -6.5068499804E+00   -6.4957271588E+00   -6.4846423124E+00   -6.4735952457E+00
   -6.4625857616E+00   -6.4516135952E+00   -6.4406786315E+00   -6.4297806843E+00
   -6.4189195673E+00   -6.4080950941E+00   -6.3973070786E+00   -6.3865553345E+00
   -6.3758396061E+00   -6.3651597825E+00   -6.3545156882E+00   -6.3439071458E+00
   -6.3333339776E+00   -6.3227960060E+00
  </PP_LOCAL>
 <PP_NONLOCAL>
   <PP_BETA.1
       type="real"
       size=" 602"
       columns="4"
       index="1"
       angular_momentum="0"
       cutoff_radius_index=" 196"
       cutoff_radius="    1.9500000000E+00" >
    0.0000000000E+00   -4.4320927876E-02   -8.8588410938E-02   -1.3274911615E-01
   -1.7674993362E-01   -2.2053808705E-01   -2.6406124297E-01   -3.0726761823E-01
   -3.5010608539E-01   -3.9252627561E-01   -4.3447867869E-01   -4.7591473983E-01
   -5.1678695285E-01   -5.5704894954E-01   -5.9665558478E-01   -6.3556301722E-01
   -6.7372878533E-01   -7.1111187847E-01   -7.4767280292E-01   -7.8337364267E-01
   -8.1817811485E-01   -8.5205161971E-01   -8.8496128510E-01   -9.1687600539E-01
   -9.4776647490E-01   -9.7760521576E-01   -1.0063666005E+00   -1.0340268689E+00
   -1.0605641403E+00   -1.0859584200E+00   -1.1101916014E+00   -1.1332474630E+00
   -1.1551116614E+00   -1.1757717190E+00   -1.1952170091E+00   -1.2134387360E+00
   -1.2304299119E+00   -1.2461853313E+00   -1.2607015415E+00   -1.2739768108E+00
   -1.2860110944E+00   -1.2968059987E+00   -1.3063647427E+00   -1.3146921193E+00
   -1.3217944542E+00   -1.3276795645E+00   -1.3323567165E+00   -1.3358365831E+00
   -1.3381312013E+00   -1.3392539299E+00   -1.3392194036E+00   -1.3380434938E+00
   -1.3357432696E+00   -1.3323369475E+00   -1.3278438600E+00   -1.3222844131E+00
   -1.3156800431E+00   -1.3080531887E+00   -1.2994272404E+00   -1.2898265191E+00
   -1.2792762287E+00   -1.2678024261E+00   -1.2554319965E+00   -1.2421925980E+00
   -1.2281126521E+00   -1.2132213047E+00   -1.1975483801E+00   -1.1811243670E+00
   -1.1639803861E+00   -1.1461481432E+00   -1.1276599044E+00   -1.1085484668E+00
   -1.0888471214E+00   -1.0685896235E+00   -1.0478101425E+00   -1.0265432339E+00
   -1.0048238019E+00   -9.8268705742E-01   -9.6016847561E-01   -9.3730375240E-01
   -9.1412875861E-01   -8.9067949243E-01   -8.6699202979E-01   -8.4310247276E-01
   -8.1904689591E-01   -7.9486129074E-01   -7.7058150804E-01   -7.4624319848E-01
   -7.2188175142E-01   -6.9753223202E-01   -6.7322931693E-01   -6.4900722869E-01
   -6.2489966904E-01   -6.0093975144E-01   -5.7715993308E-01   -5.5359194666E-01