<UPF version="2.0.1">
  <PP_INFO>

 This pseudopotential file has been produced using the code
 ONCVPSP  (Optimized Norm-Conservinng Vanderbilt PSeudopotential)
 scalar-relativistic version 2.1.1, 03/26/2014 by D. R. Hamann
 The code is available through a link at URL www.mat-simresearch.com.
 Documentation with the package provides a full discription of the
 input data below.


 While it is not required under the terms of the GNU GPL, it is
 suggested that you cite D. R. Hamann, Phys. Rev. B 88, 085117 (2013)
 in any publication using these pseudopotentials.


 Copyright 2015 The Regents of the University of California
 
 This work is licensed under the Creative Commons Attribution-ShareAlike 
 4.0 International License. To view a copy of this license, visit 
 http://creativecommons.org/licenses/by-sa/4.0/ or send a letter to 
 Creative Commons, PO Box 1866, Mountain View, CA 94042, USA.
 
 This pseudopotential is part of the Schlipf-Gygi norm-conserving 
 pseudopotential library. Its construction parameters were tuned to 
 reproduce materials of a training set with very high accuracy and 
 should be suitable as a general purpose pseudopotential to treat a 
 variety of different compounds. For details of the construction and 
 testing of the pseudopotential please refer to:
 
 [insert reference to paper here]
 
 We kindly ask that you include this reference in all publications 
 associated to this pseudopotential.


    <PP_INPUTFILE>
# ATOM AND REFERENCE CONFIGURATION
# atsym  z    nc    nv    iexc   psfile
  W 74.00     9     5     4      upf
#
#   n    l    f        energy (Ha)
    1    0    2.00
    2    0    2.00
    2    1    6.00
    3    0    2.00
    3    1    6.00
    3    2   10.00
    4    0    2.00
    4    1    6.00
    4    2   10.00
    4    3   14.00
    5    0    2.00
    5    1    6.00
    6    0    2.00
    5    2    4.00
#
# PSEUDOPOTENTIAL AND OPTIMIZATION
# lmax
    3
#
#   l,   rc,     ep,   ncon, nbas, qcut
    0   2.14508  -2.90589    5    8   7.75777
    1   2.19687  -1.58765    5    8   7.39083
    2   1.90387  -0.16465    5    8   8.12535
    3   3.03164  -1.22033    5    8   7.15988
#
# LOCAL POTENTIAL
# lloc, lpopt,  rc(5),   dvloc0
    4    5   1.64995      0.00000
#
# VANDERBILT-KLEINMAN-BYLANDER PROJECTORs
# l, nproj, debl
    0    2   2.69594
    1    2   1.53763
    2    2   1.03812
    3    2   1.31707
#
# MODEL CORE CHARGE
# icmod, fcfact
    0   0.00000
#
# LOG DERIVATIVE ANALYSIS
# epsh1, epsh2, depsh
   -5.00    3.00    0.02
#
# OUTPUT GRID
# rlmax, drl
    6.00    0.01
#
# TEST CONFIGURATIONS
# ncnf
    0
# nvcnf
#   n    l    f
    </PP_INPUTFILE>
  </PP_INFO>
  <!--                               -->
  <!-- END OF HUMAN READABLE SECTION -->
  <!--                               -->
    <PP_HEADER
       generated="Generated using ONCVPSP code by D. R. Hamann"
       author="Martin Schlipf and Francois Gygi"
       date="150105"
       comment=""
       element="W "
       pseudo_type="NC"
       relativistic="scalar"
       is_ultrasoft="F"
       is_paw="F"
       is_coulomb="F"
       has_so="F"
       has_wfc="F"
       has_gipaw="F"
       core_correction="F"
       functional="PBE"
       z_valence="   28.00"
       total_psenergy="  -2.71563779769E+02"
       rho_cutoff="   6.01000000000E+00"
       l_max="3"
       l_local="-1"
       mesh_size="   602"
       number_of_wfc="0"
       number_of_proj="8"/>
 <PP_MESH>
   <PP_R type="real"  size=" 602" columns="8">
    0.0000    0.0100    0.0200    0.0300    0.0400    0.0500    0.0600    0.0700
    0.0800    0.0900    0.1000    0.1100    0.1200    0.1300    0.1400    0.1500
    0.1600    0.1700    0.1800    0.1900    0.2000    0.2100    0.2200    0.2300
    0.2400    0.2500    0.2600    0.2700    0.2800    0.2900    0.3000    0.3100
    0.3200    0.3300    0.3400    0.3500    0.3600    0.3700    0.3800    0.3900
    0.4000    0.4100    0.4200    0.4300    0.4400    0.4500    0.4600    0.4700
    0.4800    0.4900    0.5000    0.5100    0.5200    0.5300    0.5400    0.5500
    0.5600    0.5700    0.5800    0.5900    0.6000    0.6100    0.6200    0.6300
    0.6400    0.6500    0.6600    0.6700    0.6800    0.6900    0.7000    0.7100
    0.7200    0.7300    0.7400    0.7500    0.7600    0.7700    0.7800    0.7900
    0.8000    0.8100    0.8200    0.8300    0.8400    0.8500    0.8600    0.8700
    0.8800    0.8900    0.9000    0.9100    0.9200    0.9300    0.9400    0.9500
    0.9600    0.9700    0.9800    0.9900    1.0000    1.0100    1.0200    1.0300
    1.0400    1.0500    1.0600    1.0700    1.0800    1.0900    1.1000    1.1100
    1.1200    1.1300    1.1400    1.1500    1.1600    1.1700    1.1800    1.1900
    1.2000    1.2100    1.2200    1.2300    1.2400    1.2500    1.2600    1.2700
    1.2800    1.2900    1.3000    1.3100    1.3200    1.3300    1.3400    1.3500
    1.3600    1.3700    1.3800    1.3900    1.4000    1.4100    1.4200    1.4300
    1.4400    1.4500    1.4600    1.4700    1.4800    1.4900    1.5000    1.5100
    1.5200    1.5300    1.5400    1.5500    1.5600    1.5700    1.5800    1.5900
    1.6000    1.6100    1.6200    1.6300    1.6400    1.6500    1.6600    1.6700
    1.6800    1.6900    1.7000    1.7100    1.7200    1.7300    1.7400    1.7500
    1.7600    1.7700    1.7800    1.7900    1.8000    1.8100    1.8200    1.8300
    1.8400    1.8500    1.8600    1.8700    1.8800    1.8900    1.9000    1.9100
    1.9200    1.9300    1.9400    1.9500    1.9600    1.9700    1.9800    1.9900
    2.0000    2.0100    2.0200    2.0300    2.0400    2.0500    2.0600    2.0700
    2.0800    2.0900    2.1000    2.1100    2.1200    2.1300    2.1400    2.1500
    2.1600    2.1700    2.1800    2.1900    2.2000    2.2100    2.2200    2.2300
    2.2400    2.2500    2.2600    2.2700    2.2800    2.2900    2.3000    2.3100
    2.3200    2.3300    2.3400    2.3500    2.3600    2.3700    2.3800    2.3900
    2.4000    2.4100    2.4200    2.4300    2.4400    2.4500    2.4600    2.4700
    2.4800    2.4900    2.5000    2.5100    2.5200    2.5300    2.5400    2.5500
    2.5600    2.5700    2.5800    2.5900    2.6000    2.6100    2.6200    2.6300
    2.6400    2.6500    2.6600    2.6700    2.6800    2.6900    2.7000    2.7100
    2.7200    2.7300    2.7400    2.7500    2.7600    2.7700    2.7800    2.7900
    2.8000    2.8100    2.8200    2.8300    2.8400    2.8500    2.8600    2.8700
    2.8800    2.8900    2.9000    2.9100    2.9200    2.9300    2.9400    2.9500
    2.9600    2.9700    2.9800    2.9900    3.0000    3.0100    3.0200    3.0300
    3.0400    3.0500    3.0600    3.0700    3.0800    3.0900    3.1000    3.1100
    3.1200    3.1300    3.1400    3.1500    3.1600    3.1700    3.1800    3.1900
    3.2000    3.2100    3.2200    3.2300    3.2400    3.2500    3.2600    3.2700
    3.2800    3.2900    3.3000    3.3100    3.3200    3.3300    3.3400    3.3500
    3.3600    3.3700    3.3800    3.3900    3.4000    3.4100    3.4200    3.4300
    3.4400    3.4500    3.4600    3.4700    3.4800    3.4900    3.5000    3.5100
    3.5200    3.5300    3.5400    3.5500    3.5600    3.5700    3.5800    3.5900
    3.6000    3.6100    3.6200    3.6300    3.6400    3.6500    3.6600    3.6700
    3.6800    3.6900    3.7000    3.7100    3.7200    3.7300    3.7400    3.7500
    3.7600    3.7700    3.7800    3.7900    3.8000    3.8100    3.8200    3.8300
    3.8400    3.8500    3.8600    3.8700    3.8800    3.8900    3.9000    3.9100
    3.9200    3.9300    3.9400    3.9500    3.9600    3.9700    3.9800    3.9900
    4.0000    4.0100    4.0200    4.0300    4.0400    4.0500    4.0600    4.0700
    4.0800    4.0900    4.1000    4.1100    4.1200    4.1300    4.1400    4.1500
    4.1600    4.1700    4.1800    4.1900    4.2000    4.2100    4.2200    4.2300
    4.2400    4.2500    4.2600    4.2700    4.2800    4.2900    4.3000    4.3100
    4.3200    4.3300    4.3400    4.3500    4.3600    4.3700    4.3800    4.3900
    4.4000    4.4100    4.4200    4.4300    4.4400    4.4500    4.4600    4.4700
    4.4800    4.4900    4.5000    4.5100    4.5200    4.5300    4.5400    4.5500
    4.5600    4.5700    4.5800    4.5900    4.6000    4.6100    4.6200    4.6300
    4.6400    4.6500    4.6600    4.6700    4.6800    4.6900    4.7000    4.7100
    4.7200    4.7300    4.7400    4.7500    4.7600    4.7700    4.7800    4.7900
    4.8000    4.8100    4.8200    4.8300    4.8400    4.8500    4.8600    4.8700
    4.8800    4.8900    4.9000    4.9100    4.9200    4.9300    4.9400    4.9500
    4.9600    4.9700    4.9800    4.9900    5.0000    5.0100    5.0200    5.0300
    5.0400    5.0500    5.0600    5.0700    5.0800    5.0900    5.1000    5.1100
    5.1200    5.1300    5.1400    5.1500    5.1600    5.1700    5.1800    5.1900
    5.2000    5.2100    5.2200    5.2300    5.2400    5.2500    5.2600    5.2700
    5.2800    5.2900    5.3000    5.3100    5.3200    5.3300    5.3400    5.3500
    5.3600    5.3700    5.3800    5.3900    5.4000    5.4100    5.4200    5.4300
    5.4400    5.4500    5.4600    5.4700    5.4800    5.4900    5.5000    5.5100
    5.5200    5.5300    5.5400    5.5500    5.5600    5.5700    5.5800    5.5900
    5.6000    5.6100    5.6200    5.6300    5.6400    5.6500    5.6600    5.6700
    5.6800    5.6900    5.7000    5.7100    5.7200    5.7300    5.7400    5.7500
    5.7600    5.7700    5.7800    5.7900    5.8000    5.8100    5.8200    5.8300
    5.8400    5.8500    5.8600    5.8700    5.8800    5.8900    5.9000    5.9100
    5.9200    5.9300    5.9400    5.9500    5.9600    5.9700    5.9800    5.9900
    6.0000    6.0100
   </PP_R>
   <PP_RAB type="real"  size=" 602" columns="8">
    0.0100    0.0100    0.0100    0.0100    0.0100    0.0100    0.0100    0.0100
    0.0100    0.0100    0.0100    0.0100    0.0100    0.0100    0.0100    0.0100
    0.0100    0.0100    0.0100    0.0100    0.0100    0.0100    0.0100    0.0100
    0.0100    0.0100    0.0100    0.0100    0.0100    0.0100    0.0100    0.0100
    0.0100    0.0100    0.0100    0.0100    0.0100    0.0100    0.0100    0.0100
    0.0100    0.0100    0.0100    0.0100    0.0100    0.0100    0.0100    0.0100
    0.0100    0.0100    0.0100    0.0100    0.0100    0.0100    0.0100    0.0100
    0.0100    0.0100    0.0100    0.0100    0.0100    0.0100    0.0100    0.0100
    0.0100    0.0100    0.0100    0.0100    0.0100    0.0100    0.0100    0.0100
    0.0100    0.0100    0.0100    0.0100    0.0100    0.0100    0.0100    0.0100
    0.0100    0.0100    0.0100    0.0100    0.0100    0.0100    0.0100    0.0100
    0.0100    0.0100    0.0100    0.0100    0.0100    0.0100    0.0100    0.0100
    0.0100    0.0100    0.0100    0.0100    0.0100    0.0100    0.0100    0.0100
    0.0100    0.0100    0.0100    0.0100    0.0100    0.0100    0.0100    0.0100
    0.0100    0.0100    0.0100    0.0100    0.0100    0.0100    0.0100    0.0100
    0.0100    0.0100    0.0100    0.0100    0.0100    0.0100    0.0100    0.0100
    0.0100    0.0100    0.0100    0.0100    0.0100    0.0100    0.0100    0.0100
    0.0100    0.0100    0.0100    0.0100    0.0100    0.0100    0.0100    0.0100
    0.0100    0.0100    0.0100    0.0100    0.0100    0.0100    0.0100    0.0100
    0.0100    0.0100    0.0100    0.0100    0.0100    0.0100    0.0100    0.0100
    0.0100    0.0100    0.0100    0.0100    0.0100    0.0100    0.0100    0.0100
    0.0100    0.0100    0.0100    0.0100    0.0100    0.0100    0.0100    0.0100
    0.0100    0.0100    0.0100    0.0100    0.0100    0.0100    0.0100    0.0100
    0.0100    0.0100    0.0100    0.0100    0.0100    0.0100    0.0100    0.0100
    0.0100    0.0100    0.0100    0.0100    0.0100    0.0100    0.0100    0.0100
    0.0100    0.0100    0.0100    0.0100    0.0100    0.0100    0.0100    0.0100
    0.0100    0.0100    0.0100    0.0100    0.0100    0.0100    0.0100    0.0100
    0.0100    0.0100    0.0100    0.0100    0.0100    0.0100    0.0100    0.0100
    0.0100    0.0100    0.0100    0.0100    0.0100    0.0100    0.0100    0.0100
    0.0100    0.0100    0.0100    0.0100    0.0100    0.0100    0.0100    0.0100
    0.0100    0.0100    0.0100    0.0100    0.0100    0.0100    0.0100    0.0100
    0.0100    0.0100    0.0100    0.0100    0.0100    0.0100    0.0100    0.0100
    0.0100    0.0100    0.0100    0.0100    0.0100    0.0100    0.0100    0.0100
    0.0100    0.0100    0.0100    0.0100    0.0100    0.0100    0.0100    0.0100
    0.0100    0.0100    0.0100    0.0100    0.0100    0.0100    0.0100    0.0100
    0.0100    0.0100    0.0100    0.0100    0.0100    0.0100    0.0100    0.0100
    0.0100    0.0100    0.0100    0.0100    0.0100    0.0100    0.0100    0.0100
    0.0100    0.0100    0.0100    0.0100    0.0100    0.0100    0.0100    0.0100
    0.0100    0.0100    0.0100    0.0100    0.0100    0.0100    0.0100    0.0100
    0.0100    0.0100    0.0100    0.0100    0.0100    0.0100    0.0100    0.0100
    0.0100    0.0100    0.0100    0.0100    0.0100    0.0100    0.0100    0.0100
    0.0100    0.0100    0.0100    0.0100    0.0100    0.0100    0.0100    0.0100
    0.0100    0.0100    0.0100    0.0100    0.0100    0.0100    0.0100    0.0100
    0.0100    0.0100    0.0100    0.0100    0.0100    0.0100    0.0100    0.0100
    0.0100    0.0100    0.0100    0.0100    0.0100    0.0100    0.0100    0.0100
    0.0100    0.0100    0.0100    0.0100    0.0100    0.0100    0.0100    0.0100
    0.0100    0.0100    0.0100    0.0100    0.0100    0.0100    0.0100    0.0100
    0.0100    0.0100    0.0100    0.0100    0.0100    0.0100    0.0100    0.0100
    0.0100    0.0100    0.0100    0.0100    0.0100    0.0100    0.0100    0.0100
    0.0100    0.0100    0.0100    0.0100    0.0100    0.0100    0.0100    0.0100
    0.0100    0.0100    0.0100    0.0100    0.0100    0.0100    0.0100    0.0100
    0.0100    0.0100    0.0100    0.0100    0.0100    0.0100    0.0100    0.0100
    0.0100    0.0100    0.0100    0.0100    0.0100    0.0100    0.0100    0.0100
    0.0100    0.0100    0.0100    0.0100    0.0100    0.0100    0.0100    0.0100
    0.0100    0.0100    0.0100    0.0100    0.0100    0.0100    0.0100    0.0100
    0.0100    0.0100    0.0100    0.0100    0.0100    0.0100    0.0100    0.0100
    0.0100    0.0100    0.0100    0.0100    0.0100    0.0100    0.0100    0.0100
    0.0100    0.0100    0.0100    0.0100    0.0100    0.0100    0.0100    0.0100
    0.0100    0.0100    0.0100    0.0100    0.0100    0.0100    0.0100    0.0100
    0.0100    0.0100    0.0100    0.0100    0.0100    0.0100    0.0100    0.0100
    0.0100    0.0100    0.0100    0.0100    0.0100    0.0100    0.0100    0.0100
    0.0100    0.0100    0.0100    0.0100    0.0100    0.0100    0.0100    0.0100
    0.0100    0.0100    0.0100    0.0100    0.0100    0.0100    0.0100    0.0100
    0.0100    0.0100    0.0100    0.0100    0.0100    0.0100    0.0100    0.0100
    0.0100    0.0100    0.0100    0.0100    0.0100    0.0100    0.0100    0.0100
    0.0100    0.0100    0.0100    0.0100    0.0100    0.0100    0.0100    0.0100
    0.0100    0.0100    0.0100    0.0100    0.0100    0.0100    0.0100    0.0100
    0.0100    0.0100    0.0100    0.0100    0.0100    0.0100    0.0100    0.0100
    0.0100    0.0100    0.0100    0.0100    0.0100    0.0100    0.0100    0.0100
    0.0100    0.0100    0.0100    0.0100    0.0100    0.0100    0.0100    0.0100
    0.0100    0.0100    0.0100    0.0100    0.0100    0.0100    0.0100    0.0100
    0.0100    0.0100    0.0100    0.0100    0.0100    0.0100    0.0100    0.0100
    0.0100    0.0100    0.0100    0.0100    0.0100    0.0100    0.0100    0.0100
    0.0100    0.0100    0.0100    0.0100    0.0100    0.0100    0.0100    0.0100
    0.0100    0.0100    0.0100    0.0100    0.0100    0.0100    0.0100    0.0100
    0.0100    0.0100
   </PP_RAB>
 </PP_MESH>
  <PP_LOCAL type="real"  size=" 602" columns="4">
   -6.1495141100E+01   -6.1507113206E+01   -6.1546937436E+01   -6.1603956613E+01
   -6.1667513557E+01   -6.1727554180E+01   -6.1776565583E+01   -6.1810180063E+01
   -6.1826802530E+01   -6.1826807891E+01   -6.1811718714E+01   -6.1783560457E+01
   -6.1744436105E+01   -6.1696286443E+01   -6.1640781297E+01   -6.1579291887E+01
   -6.1512907665E+01   -6.1442473404E+01   -6.1368632346E+01   -6.1291867557E+01
   -6.1212537976E+01   -6.1130908019E+01   -6.1047170883E+01   -6.0961466353E+01
   -6.0873894052E+01   -6.0784523167E+01   -6.0693399492E+01   -6.0600550502E+01
   -6.0505989035E+01   -6.0409716041E+01   -6.0311722656E+01   -6.0211991876E+01
   -6.0110499941E+01   -6.0007217552E+01   -5.9902110987E+01   -5.9795143088E+01
   -5.9686274238E+01   -5.9575463214E+01   -5.9462668021E+01   -5.9347846632E+01
   -5.9230957662E+01   -5.9111960974E+01   -5.8990818197E+01   -5.8867493184E+01
   -5.8741952382E+01   -5.8614165145E+01   -5.8484103973E+01   -5.8351744697E+01
   -5.8217066620E+01   -5.8080052579E+01   -5.7940688982E+01   -5.7798965801E+01
   -5.7654876578E+01   -5.7508418282E+01   -5.7359591275E+01   -5.7208399190E+01
   -5.7054848745E+01   -5.6898949687E+01   -5.6740714510E+01   -5.6580158402E+01
   -5.6417298957E+01   -5.6252156043E+01   -5.6084751608E+01   -5.5915109416E+01
   -5.5743254939E+01   -5.5569215085E+01   -5.5393017992E+01   -5.5214692866E+01
   -5.5034269750E+01   -5.4851779315E+01   -5.4667252666E+01   -5.4480721149E+01
   -5.4292216147E+01   -5.4101768879E+01   -5.3909410219E+01   -5.3715170501E+01
   -5.3519079342E+01   -5.3321165468E+01   -5.3121456517E+01   -5.2919978909E+01
   -5.2716757688E+01   -5.2511816396E+01   -5.2305176953E+01   -5.2096859579E+01
   -5.1886882730E+01   -5.1675263077E+01   -5.1462015522E+01   -5.1247153263E+01
   -5.1030687903E+01   -5.0812629624E+01   -5.0592987415E+01   -5.0371769365E+01
   -5.0148983018E+01   -4.9924635777E+01   -4.9698735386E+01   -4.9471290483E+01
   -4.9242311160E+01   -4.9011809573E+01   -4.8779800569E+01   -4.8546302306E+01
   -4.8311336862E+01   -4.8074930520E+01   -4.7837115041E+01   -4.7597927578E+01
   -4.7357411096E+01   -4.7115614659E+01   -4.6872593321E+01   -4.6628408655E+01
   -4.6383128923E+01   -4.6136828110E+01   -4.5889585896E+01   -4.5641486792E+01
   -4.5392621364E+01   -4.5143083919E+01   -4.4892972377E+01   -4.4642387489E+01
   -4.4391433223E+01   -4.4140214802E+01   -4.3888838568E+01   -4.3637411628E+01
   -4.3386040908E+01   -4.3134832699E+01   -4.2883892791E+01   -4.2633324854E+01
   -4.2383230963E+01   -4.2133711822E+01   -4.1884864848E+01   -4.1636785110E+01
   -4.1389566022E+01   -4.1143296829E+01   -4.0898064233E+01   -4.0653953345E+01
   -4.0411044141E+01   -4.0169414751E+01   -3.9929140979E+01   -3.9690293584E+01
   -3.9452942149E+01   -3.9217152355E+01   -3.8982985982E+01   -3.8750504114E+01
   -3.8519761482E+01   -3.8290811765E+01   -3.8063705055E+01   -3.7838486407E+01
   -3.7615201025E+01   -3.7393885980E+01   -3.7174578436E+01   -3.6957309899E+01
   -3.6742107861E+01   -3.6528998050E+01   -3.6317997678E+01   -3.6109125947E+01
   -3.5902390357E+01   -3.5697800349E+01   -3.5495355823E+01   -3.5295054914E+01
   -3.5096889640E+01   -3.4900846365E+01   -3.4706908898E+01   -3.4515051784E+01
   -3.4325250338E+01   -3.4137467742E+01   -3.3951670686E+01   -3.3767812015E+01
   -3.3585849812E+01   -3.3405728523E+01   -3.3227397209E+01   -3.3050797652E+01
   -3.2875873262E+01   -3.2702568249E+01   -3.2530825327E+01   -3.2360592737E+01
   -3.2191814648E+01   -3.2024445512E+01   -3.1858433426E+01   -3.1693740450E+01
   -3.1530321273E+01   -3.1368146258E+01   -3.1207179218E+01   -3.1047398672E+01
   -3.0888779585E+01   -3.0731307861E+01   -3.0574970689E+01   -3.0419760342E+01
   -3.0265675963E+01   -3.0112715356E+01   -2.9960887781E+01   -2.9810196239E+01
   -2.9660656322E+01   -2.9512277652E+01   -2.9365076943E+01   -2.9219069698E+01
   -2.9074271702E+01   -2.8930699823E+01   -2.8788369791E+01   -2.8647293338E+01
   -2.8507487938E+01   -2.8368956076E+01   -2.8231710065E+01   -2.8095748025E+01
   -2.7961068211E+01   -2.7827668393E+01   -2.7695527740E+01   -2.7564641637E+01
   -2.7434976846E+01   -2.7306511070E+01   -2.7179213331E+01   -2.7053042044E+01
   -2.6927965309E+01   -2.6803935085E+01   -2.6680908419E+01   -2.6558842469E+01
   -2.6437694208E+01   -2.6317415303E+01   -2.6197975744E+01   -2.6079333343E+01
   -2.5961457756E+01   -2.5844331342E+01   -2.5727917408E+01   -2.5612216148E+01
   -2.5497214385E+01   -2.5382901269E+01   -2.5269289037E+01   -2.5156374036E+01
   -2.5044168286E+01   -2.4932686695E+01   -2.4821937233E+01   -2.4711938985E+01
   -2.4602707604E+01   -2.4494258529E+01   -2.4386605606E+01   -2.4279766042E+01
   -2.4173751464E+01   -2.4068570493E+01   -2.3964238786E+01   -2.3860759028E+01
   -2.3758135463E+01   -2.3656379318E+01   -2.3555484864E+01   -2.3455453366E+01
   -2.3356287621E+01   -2.3257979045E+01   -2.3160524843E+01   -2.3063921335E+01
   -2.2968158337E+01   -2.2873229656E+01   -2.2779127563E+01   -2.2685841127E+01
   -2.2593361688E+01   -2.2501679473E+01   -2.2410783391E+01   -2.2320663292E+01
   -2.2231308672E+01   -2.2142708704E+01   -2.2054852600E+01   -2.1967729832E+01
   -2.1881330121E+01   -2.1795642699E+01   -2.1710657304E+01   -2.1626364376E+01
   -2.1542753602E+01   -2.1459815053E+01   -2.1377539962E+01   -2.1295918708E+01
   -2.1214941675E+01   -2.1134600874E+01   -2.1054887481E+01   -2.0975792144E+01
   -2.0897307595E+01   -2.0819425739E+01   -2.0742137661E+01   -2.0665436523E+01
   -2.0589314861E+01   -2.0513764545E+01   -2.0438778711E+01   -2.0364350594E+01
   -2.0290472816E+01   -2.0217138428E+01   -2.0144341317E+01   -2.0072074815E+01
   -2.0000331857E+01   -1.9929106928E+01   -1.9858393878E+01   -1.9788186008E+01
   -1.9718477851E+01   -1.9649263818E+01   -1.9580537877E+01   -1.9512294263E+01
   -1.9444528019E+01   -1.9377233760E+01   -1.9310405482E+01   -1.9244038729E+01
   -1.9178128498E+01   -1.9112669432E+01   -1.9047656650E+01   -1.8983085785E+01
   -1.8918952137E+01   -1.8855250424E+01   -1.8791976815E+01   -1.8729126928E+01
   -1.8666696120E+01   -1.8604680038E+01   -1.8543074893E+01   -1.8481876571E+01
   -1.8421080555E+01   -1.8360683238E+01   -1.8300680815E+01   -1.8241069321E+01
   -1.8181844672E+01   -1.8123003480E+01   -1.8064542043E+01   -1.8006456462E+01
   -1.7948743135E+01   -1.7891398713E+01   -1.7834419663E+01   -1.7777802159E+01
   -1.7721543012E+01   -1.7665638936E+01   -1.7610086558E+01   -1.7554882179E+01
   -1.7500022932E+01   -1.7445505608E+01   -1.7391326922E+01   -1.7337483490E+01
   -1.7283972531E+01   -1.7230790985E+01   -1.7177935671E+01   -1.7125403469E+01
   -1.7073191691E+01   -1.7021297419E+01   -1.6969717586E+01   -1.6918449290E+01
   -1.6867489941E+01   -1.6816836760E+01   -1.6766486803E+01   -1.6716437337E+01
   -1.6666685884E+01   -1.6617229794E+01   -1.6568066256E+01   -1.6519192662E+01
   -1.6470606657E+01   -1.6422305712E+01   -1.6374287160E+01   -1.6326548479E+01
   -1.6279087439E+01   -1.6231901631E+01   -1.6184988541E+01   -1.6138345690E+01
   -1.6091970987E+01   -1.6045862135E+01   -1.6000016779E+01   -1.5954432452E+01
   -1.5909107207E+01   -1.5864038852E+01   -1.5819225197E+01   -1.5774663768E+01
   -1.5730352750E+01   -1.5686290061E+01   -1.5642473611E+01   -1.5598901100E+01
   -1.5555570641E+01   -1.5512480324E+01   -1.5469628154E+01   -1.5427012017E+01
   -1.5384629925E+01   -1.5342480138E+01   -1.5300560758E+01   -1.5258869864E+01
   -1.5217405338E+01   -1.5176165619E+01   -1.5135148895E+01   -1.5094353356E+01
   -1.5053777008E+01   -1.5013418194E+01   -1.4973275276E+01   -1.4933346527E+01
   -1.4893630160E+01   -1.4854124326E+01   -1.4814827581E+01   -1.4775738280E+01
   -1.4736854776E+01   -1.4698175241E+01   -1.4659698193E+01   -1.4621422137E+01
   -1.4583345504E+01   -1.4545466686E+01   -1.4507783954E+01   -1.4470296023E+01
   -1.4433001395E+01   -1.4395898577E+01   -1.4358985938E+01   -1.4322262038E+01
   -1.4285725565E+01   -1.4249375093E+01   -1.4213209197E+01   -1.4177226246E+01
   -1.4141425041E+01   -1.4105804255E+01   -1.4070362530E+01   -1.4035098474E+01
   -1.4000010567E+01   -1.3965097711E+01   -1.3930358612E+01   -1.3895791973E+01
   -1.3861396417E+01   -1.3827170599E+01   -1.3793113433E+01   -1.3759223682E+01
   -1.3725500111E+01   -1.3691941371E+01   -1.3658546254E+01   -1.3625313696E+01
   -1.3592242517E+01   -1.3559331540E+01   -1.3526579455E+01   -1.3493985158E+01
   -1.3461547614E+01   -1.3429265701E+01   -1.3397138295E+01   -1.3365164136E+01
   -1.3333342191E+01   -1.3301671469E+01   -1.3270150897E+01   -1.3238779405E+01
   -1.3207555793E+01   -1.3176479068E+01   -1.3145548290E+01   -1.3114762437E+01
   -1.3084120489E+01   -1.3053621314E+01   -1.3023263932E+01   -1.2993047463E+01
   -1.2962970935E+01   -1.2933033373E+01   -1.2903233724E+01   -1.2873570992E+01
   -1.2844044368E+01   -1.2814652925E+01   -1.2785395734E+01   -1.2756271830E+01
   -1.2727280173E+01   -1.2698420036E+01   -1.2669690532E+01   -1.2641090776E+01
   -1.2612619885E+01   -1.2584276799E+01   -1.2556060831E+01   -1.2527971151E+01
   -1.2500006915E+01   -1.2472167280E+01   -1.2444451290E+01   -1.2416858161E+01
   -1.2389387164E+01   -1.2362037495E+01   -1.2334808348E+01   -1.2307698882E+01
   -1.2280708195E+01   -1.2253835662E+01   -1.2227080516E+01   -1.2200441992E+01
   -1.2173919320E+01   -1.2147511604E+01   -1.2121218189E+01   -1.2095038389E+01
   -1.2068971472E+01   -1.2043016708E+01   -1.2017173326E+01   -1.1991440508E+01
   -1.1965817690E+01   -1.1940304176E+01   -1.1914899267E+01   -1.1889602268E+01
   -1.1864412373E+01   -1.1839328950E+01   -1.1814351398E+01   -1.1789479052E+01
   -1.1764711246E+01   -1.1740047317E+01   -1.1715486440E+01   -1.1691028137E+01
   -1.1666671777E+01   -1.1642416727E+01   -1.1618262353E+01   -1.1594207979E+01
   -1.1570252902E+01   -1.1546396636E+01   -1.1522638578E+01   -1.1498978123E+01
   -1.1475414668E+01   -1.1451947534E+01   -1.1428576119E+01   -1.1405299931E+01
   -1.1382118394E+01   -1.1359030934E+01   -1.1336036972E+01   -1.1313135842E+01
   -1.1290327013E+01   -1.1267609998E+01   -1.1244984248E+01   -1.1222449214E+01
   -1.1200004346E+01   -1.1177648996E+01   -1.1155382681E+01   -1.1133204926E+01
   -1.1111115210E+01   -1.1089113007E+01   -1.1067197796E+01   -1.1045368954E+01
   -1.1023626022E+01   -1.1001968550E+01   -1.0980396040E+01   -1.0958907990E+01
   -1.0937503904E+01   -1.0916183197E+01   -1.0894945408E+01   -1.0873790121E+01
   -1.0852716859E+01   -1.0831725147E+01   -1.0810814510E+01   -1.0789984409E+01
   -1.0769234360E+01   -1.0748563989E+01   -1.0727972842E+01   -1.0707460466E+01
   -1.0687026406E+01   -1.0666670179E+01   -1.0646391258E+01   -1.0626189319E+01
   -1.0606063927E+01   -1.0586014651E+01   -1.0566041058E+01   -1.0546142715E+01
   -1.0526319068E+01   -1.0506569814E+01   -1.0486894550E+01   -1.0467292865E+01
   -1.0447764346E+01   -1.0428308580E+01   -1.0408925084E+01   -1.0389613467E+01
   -1.0370373395E+01   -1.0351204476E+01   -1.0332106316E+01   -1.0313078521E+01
   -1.0294120687E+01   -1.0275232320E+01   -1.0256413159E+01   -1.0237662829E+01
   -1.0218980955E+01   -1.0200367162E+01   -1.0181821075E+01   -1.0163342249E+01
   -1.0144930335E+01   -1.0126585030E+01   -1.0108305976E+01   -1.0090092816E+01
   -1.0071945192E+01   -1.0053862748E+01   -1.0035845009E+01   -1.0017891745E+01
   -1.0000002620E+01   -9.9821772941E+00   -9.9644154252E+00   -9.9467166730E+00
   -9.9290806635E+00   -9.9115070080E+00   -9.8939954669E+00   -9.8765457152E+00
   -9.8591574281E+00   -9.8418302807E+00   -9.8245639481E+00   -9.8073580456E+00
   -9.7902122591E+00   -9.7731263353E+00   -9.7560999644E+00   -9.7391328367E+00
   -9.7222246425E+00   -9.7053750719E+00   -9.6885837396E+00   -9.6718503831E+00
   -9.6551747448E+00   -9.6385565293E+00   -9.6219954413E+00   -9.6054911855E+00
   -9.5890434666E+00   -9.5726519076E+00   -9.5563162758E+00   -9.5400363186E+00
   -9.5238117543E+00   -9.5076423015E+00   -9.4915276785E+00   -9.4754676038E+00
   -9.4594617173E+00   -9.4435097959E+00   -9.4276116004E+00   -9.4117668624E+00
   -9.3959753136E+00   -9.3802366854E+00   -9.3645507095E+00   -9.3489170504E+00
   -9.3333354756E+00   -9.3178057678E+00
  </PP_LOCAL>
 <PP_NONLOCAL>
   <PP_BETA.1
       type="real"
       size=" 602"
       columns="4"
       index="1"
       angular_momentum="0"
       cutoff_radius_index=" 308"
       cutoff_radius="    3.0700000000E+00" >
    0.0000000000E+00   -6.1624524386E-02   -1.2314646990E-01   -1.8446342343E-01
   -2.4547330347E-01   -3.0607452585E-01   -3.6616616961E-01   -4.2564814278E-01
   -4.8442134822E-01   -5.4238784936E-01   -5.9945103588E-01   -6.5551578917E-01
   -7.1048864760E-01   -7.6427797143E-01   -8.1679410709E-01   -8.6794955101E-01
   -9.1765911235E-01   -9.6584007494E-01   -1.0124123577E+00   -1.0572986734E+00
   -1.1004246861E+00   -1.1417191653E+00   -1.1811141387E+00   -1.2185450414E+00
   -1.2539508613E+00   -1.2872742819E+00   -1.3184618194E+00   -1.3474639560E+00
   -1.3742352679E+00   -1.3987345469E+00   -1.4209249163E+00   -1.4407739393E+00
   -1.4582537212E+00   -1.4733410029E+00   -1.4860172439E+00   -1.4962687021E+00
   -1.5040864949E+00   -1.5094666613E+00   -1.5124102032E+00   -1.5129231207E+00
   -1.5110164363E+00   -1.5067062052E+00   -1.5000135132E+00   -1.4909644626E+00
   -1.4795901448E+00   -1.4659265992E+00   -1.4500147583E+00   -1.4319003798E+00
   -1.4116339637E+00   -1.3892706546E+00   -1.3648701324E+00   -1.3384964886E+00
   -1.3102180806E+00   -1.2801073889E+00   -1.2482408441E+00   -1.2146986430E+00
   -1.1795645755E+00   -1.1429257826E+00   -1.1048725892E+00   -1.0654982178E+00
   -1.0248986004E+00   -9.8317209940E-01   -9.4041923251E-01   -8.9674247950E-01
   -8.5224589031E-01   -8.0703488062E-01   -7.6121596750E-01   -7.1489638340E-01
   -6.6818382135E-01   -6.2118615596E-01   -5.7401115488E-01   -5.2676609964E-01
   -4.7955750556E-01   -4.3249085771E-01   -3.8567029002E-01   -3.3919828802E-01
   -2.9317540282E-01   -2.4769998362E-01   -2.0286780305E-01   -1.5877189687E-01
   -1.1550226548E-01   -7.3145623324E-02   -3.1785159801E-02    8.4996873884E-03
    4.7633445588E-02    8.5544806328E-02    1.2216680948E-01    1.5743701169E-01