                                                                                     
                             WELCOME TO ABACUS                                       
                                                                                     
               'Atomic-orbital Based Ab-initio Computation at UStc'                  
                                                                                     
                     Website: http://abacus.ustc.edu.cn/                             
                                                                                     
    Version: Parallel, in development
    Processor Number is 8
    Start Time is Fri Nov 12 18:17:38 2021
                                                                                     
 ------------------------------------------------------------------------------------

 READING GENERAL INFORMATION
                           global_out_dir = OUT.ABACUS/
                           global_in_card = INPUT
                               pseudo_dir = 
                              orbital_dir = 
                              pseudo_type = auto
                                    DRANK = 1
                                    DSIZE = 8
                                   DCOLOR = 1
                                    GRANK = 1
                                    GSIZE = 1




 >>>>>>>>>>>>>>>>>>>>>>>>>>>>>>>>>>>>>>>>>>>>>>>>>>>>>>>>>>>>>>>>>>>>>>
 |                                                                    |
 | Reading atom information in unitcell:                              |
 | From the input file and the structure file we know the number of   |
 | different elments in this unitcell, then we list the detail        |
 | information for each element, especially the zeta and polar atomic |
 | orbital number for each element. The total atom number is counted. |
 | We calculate the nearest atom distance for each atom and show the  |
 | Cartesian and Direct coordinates for each atom. We list the file   |
 | address for atomic orbitals. The volume and the lattice vectors    |
 | in real and reciprocal space is also shown.                        |
 |                                                                    |
 <<<<<<<<<<<<<<<<<<<<<<<<<<<<<<<<<<<<<<<<<<<<<<<<<<<<<<<<<<<<<<<<<<<<<<




 READING UNITCELL INFORMATION
                                    ntype = 2
                 atom label for species 1 = H
                 atom label for species 2 = C
                  lattice constant (Bohr) = 1.88973
              lattice constant (Angstrom) = 1

 READING ATOM TYPE 1
                               atom label = H
                      L=0, number of zeta = 1
                      L=1, number of zeta = 1
                      L=2, number of zeta = 1
             number of atom for this type = 4
                      start magnetization = FALSE
                      start magnetization = FALSE
                      start magnetization = FALSE
                      start magnetization = FALSE

 READING ATOM TYPE 2
                               atom label = C
                      L=0, number of zeta = 1
                      L=1, number of zeta = 1
                      L=2, number of zeta = 1
             number of atom for this type = 1
                      start magnetization = FALSE

                        TOTAL ATOM NUMBER = 5

 CARTESIAN COORDINATES ( UNIT = 1.88973 Bohr ).
         atom                   x                   y                   z                 mag                  vx                  vy                  vz
      tauc_H1       5.09290605164       3.89242871555       3.45835777937                   0                   0                   0                   0
      tauc_H2       3.80361094208       4.55005711875       4.16705754763                   0                   0                   0                   0
      tauc_H3       5.21981288147       5.33321039636       4.20859510266                   0                   0                   0                   0
      tauc_H4       5.00814830724        3.9800234484       5.08471194545                   0                   0                   0                   0
      tauc_C1       4.78773457902       4.43947390549       4.22344175994                   0                   0                   0                   0


                          Volume (Bohr^3) = 5734.60762332
                             Volume (A^3) = 849.780160031

 Lattice vectors: (Cartesian coordinate: in unit of a_0)
       +9.27069258481                  +0                  +0
     +0.0128238456952      +9.56209520274                  +0
      +0.169560774735    -0.0300305282636      +9.58609795568
 Reciprocal vectors: (Cartesian coordinate: in unit of 2 pi/a_0)
      +0.107866806158  -0.000144661525376     -0.001908422339
                   -0     +0.104579590435  +0.000327618219725
                   +0                  +0     +0.104317732264




 >>>>>>>>>>>>>>>>>>>>>>>>>>>>>>>>>>>>>>>>>>>>>>>>>>>>>>>>>>>>>>>>>>>>>>
 |                                                                    |
 | Reading pseudopotentials files:                                    |
 | The pseudopotential file is in UPF format. The 'NC' indicates that |
 | the type of pseudopotential is 'norm conserving'. Functional of    |
 | exchange and correlation is decided by 4 given parameters in UPF   |
 | file.  We also read in the 'core correction' if there exists.      |
 | Also we can read the valence electrons number and the maximal      |
 | angular momentum used in this pseudopotential. We also read in the |
 | trail wave function, trail atomic density and local-pseudopotential|
 | on logrithmic grid. The non-local pseudopotential projector is also|
 | read in if there is any.                                           |
 |                                                                    |
 <<<<<<<<<<<<<<<<<<<<<<<<<<<<<<<<<<<<<<<<<<<<<<<<<<<<<<<<<<<<<<<<<<<<<<




                PAO radial cut off (Bohr) = 15

 Read in pseudopotential file is H_ONCV_PBE-1.0.upf
                     pseudopotential type = NC
                            functional Ex = PBE
                            functional Ec = 
                          functional GCEx = 
                          functional GCEc = 
                 nonlocal core correction = 0
                        valence electrons = 1
                                     lmax = 0
                           number of zeta = 0
                     number of projectors = 2
                           L of projector = 0
                           L of projector = 0
                PAO radial cut off (Bohr) = 15

 Read in pseudopotential file is C_ONCV_PBE-1.0.upf
                     pseudopotential type = NC
                            functional Ex = PBE
                            functional Ec = 
                          functional GCEx = 
                          functional GCEc = 
                 nonlocal core correction = 0
                        valence electrons = 4
                                     lmax = 1
                           number of zeta = 0
                     number of projectors = 4
                           L of projector = 0
                           L of projector = 0
                           L of projector = 1
                           L of projector = 1
     initial pseudo atomic orbital number = 0
                                   NLOCAL = 45

 SETUP THE ELECTRONS NUMBER
             electron number of element H = 1
       total electron number of element H = 4
             electron number of element C = 4
       total electron number of element C = 4
                           occupied bands = 4
                                   NBANDS = 14
 DONE : SETUP UNITCELL Time : 0.0822040801286 (SEC)





 >>>>>>>>>>>>>>>>>>>>>>>>>>>>>>>>>>>>>>>>>>>>>>>>>>>>>>>>>>>>>>>>>>>>>>
 |                                                                    |
 | Setup K-points                                                     |
 | We setup the k-points according to input parameters.               |
 | The reduced k-points are set according to symmetry operations.     |
 | We treat the spin as another set of k-points.                      |
 |                                                                    |
 <<<<<<<<<<<<<<<<<<<<<<<<<<<<<<<<<<<<<<<<<<<<<<<<<<<<<<<<<<<<<<<<<<<<<<





 SETUP K-POINTS
                                    nspin = 1
                   Input type of k points = Monkhorst-Pack(Gamma)
                                   nkstot = 1

  KPOINTS            DIRECT_X            DIRECT_Y            DIRECT_Z              WEIGHT
        1                   0                   0                   0                   1

           k-point number in this process = 1
       minimum distributed K point number = 1

  KPOINTS         CARTESIAN_X         CARTESIAN_Y         CARTESIAN_Z              WEIGHT
        1                   0                   0                   0                   2

  KPOINTS            DIRECT_X            DIRECT_Y            DIRECT_Z              WEIGHT
        1                   0                   0                   0                   2
 DONE : INIT K-POINTS Time : 0.0836835908704 (SEC)





 >>>>>>>>>>>>>>>>>>>>>>>>>>>>>>>>>>>>>>>>>>>>>>>>>>>>>>>>>>>>>>>>>>>>>>
 |                                                                    |
 | Setup plane waves:                                                 |
 | Use the energy cutoff and the lattice vectors to generate the      |
 | dimensions of FFT grid. The number of FFT grid on each processor   |
 | is 'nrxx'. The number of plane wave basis in reciprocal space is   |
 | different for charege/potential and wave functions. We also set    |
 | the 'sticks' for the parallel of FFT.                              |
 |                                                                    |
 <<<<<<<<<<<<<<<<<<<<<<<<<<<<<<<<<<<<<<<<<<<<<<<<<<<<<<<<<<<<<<<<<<<<<<





 SETUP THE PLANE WAVE BASIS
     energy cutoff for wavefunc (unit:Ry) = 90
            [fft grid for wave functions] = 108, 120, 120
          [fft grid for charge/potential] = 108, 120, 120
                      [fft grid division] = 1, 1, 1
      [big fft grid for charge/potential] = 108, 120, 120
                                     nbxx = 194400
                                     nrxx = 194400

 SETUP PLANE WAVES FOR CHARGE/POTENTIAL
                    number of plane waves = 661353
                         number of sticks = 9057

 SETUP PLANE WAVES FOR WAVE FUNCTIONS
                    number of plane waves = 82689
                         number of sticks = 2267

 PARALLEL PW FOR CHARGE/POTENTIAL
     PROC   COLUMNS(POT)             PW
        1           1132          82670
        2           1132          82669
        3           1132          82669
        4           1132          82669
        5           1132          82669
        6           1132          82669
        7           1133          82669
        8           1132          82669
 --------------- sum -------------------
        8           9057         661353

 PARALLEL PW FOR WAVE FUNCTIONS
     PROC     COLUMNS(W)             PW
        1            284          10334
        2            283          10336
        3            283          10338
        4            281          10335
        5            285          10338
        6            285          10336
        7            282          10334
        8            284          10338
 --------------- sum -------------------
        8           2267          82689

 SETUP COORDINATES OF PLANE WAVES
              number of total plane waves = 661353

 SETUP COORDINATES OF PLANE WAVES
                            number of |g| = 79694
                                  max |g| = 32.5641662388
                                  min |g| = 0
 DONE : INIT PLANEWAVE Time : 0.336783995619 (SEC)

                                     npwx = 10334

 SETUP NONLOCAL PSEUDOPOTENTIALS IN PLANE WAVE BASIS
 H non-local projectors:
 projector 1 L=0
 projector 2 L=0
 C non-local projectors:
 projector 1 L=0
 projector 2 L=0
 projector 3 L=1
 projector 4 L=1
      TOTAL NUMBER OF NONLOCAL PROJECTORS = 16
 DONE : LOCAL POTENTIAL Time : 4.04769805988 (SEC)


 Init Non-Local PseudoPotential table : 
 Init Non-Local-Pseudopotential done.
 DONE : NON-LOCAL POTENTIAL Time : 4.05365722452 (SEC)

                                start_pot = atomic
 DONE : INIT POTENTIAL Time : 4.48892 (SEC)


 Make real space PAO into reciprocal space.
       max mesh points in Pseudopotential = 601
     dq(describe PAO in reciprocal space) = 0.01
                                    max q = 1143

 number of pseudo atomic orbitals for H is 0

 number of pseudo atomic orbitals for C is 0
 DONE : INIT BASIS Time : 4.74304 (SEC)

 ...............Nose-Hoover Chain parameter initialization...............  
 Temperature =    0
 Temperature2 =    0
 NHC frequency =    0.00120944
 NHC chain =    4
 Qmass  =    1822.89
 ...............................................................  

 PW ALGORITHM --------------- ION=   1  ELEC=   1--------------------------------
  K-point    CG iter num      Time(Sec)
        1      10.000000       1.100000

 Density error is 0.960510453558

 PW ALGORITHM --------------- ION=   1  ELEC=   2--------------------------------
  K-point    CG iter num      Time(Sec)
        1       2.285714       0.310000

 Density error is 0.098733734228

 PW ALGORITHM --------------- ION=   1  ELEC=   3--------------------------------
  K-point    CG iter num      Time(Sec)
        1       4.071429       0.500000

 Density error is 0.029156016548

 PW ALGORITHM --------------- ION=   1  ELEC=   4--------------------------------
  K-point    CG iter num      Time(Sec)
        1       3.714286       0.450000

 Density error is 0.157357850345

 PW ALGORITHM --------------- ION=   1  ELEC=   5--------------------------------
  K-point    CG iter num      Time(Sec)
        1       3.142857       0.390000

 Density error is 0.000022976111

 PW ALGORITHM --------------- ION=   1  ELEC=   6--------------------------------
  K-point    CG iter num      Time(Sec)
        1       8.785714       0.970000

 Density error is 0.000027903812

 PW ALGORITHM --------------- ION=   1  ELEC=   7--------------------------------
  K-point    CG iter num      Time(Sec)
        1       4.357143       0.530000

 Density error is 0.000007318066

 PW ALGORITHM --------------- ION=   1  ELEC=   8--------------------------------
  K-point    CG iter num      Time(Sec)
        1       5.000000       0.590000

 Density error is 0.000000148874

 PW ALGORITHM --------------- ION=   1  ELEC=   9--------------------------------
  K-point    CG iter num      Time(Sec)
        1       6.428571       0.730000

 Density error is 0.000000001372

 PW ALGORITHM --------------- ION=   1  ELEC=  10--------------------------------
  K-point    CG iter num      Time(Sec)
        1       7.714286       0.860000

 Density error is 0.000000001003

 PW ALGORITHM --------------- ION=   1  ELEC=  11--------------------------------
  K-point    CG iter num      Time(Sec)
        1       7.785714       0.880000

 Density error is 0.000000000059

 charge density convergence is achieved
 final etot is -219.118728218927 eV



 ><><><><><><><><><><><><><><><><><><><><><><

    TOTAL-FORCE (eV/Angstrom)

 ><><><><><><><><><><><><><><><><><><><><><><

     atom              x              y              z
       H1      +1.508322      -2.517782      -3.530747
       H2      -4.418462      +0.530736      -0.259007
       H3      +1.940423      +3.914120      -0.121649
       H4      +0.930235      -1.848593      +3.369226
       C1      +0.039482      -0.078480      +0.542177


 ><><><><><><><><><><><><><><><><><><><><><><

 TOTAL-STRESS (KBAR)

 ><><><><><><><><><><><><><><><><><><><><><><

      +11.019212      -0.012921      -0.249753
       -0.012921     +10.888803      +0.464085
       -0.249753      +0.464085     +10.579625

output Pressure for check!
Virtual Pressure is +21.658426 Kbar 
Virial Term is +21.658426 Kbar 
Kenetic Term is +0.000000 Kbar 

 --------------------------------------------------
 Molecular Dynamics (NVT) STEP 1
 --------------------------------------------------
--------------------------------------------------
            SUMMARY OF NVT CALCULATION            
 --------------------------------------------------
 NVT Conservation     : -16.104924 (Rydberg)
 NVT Temperature      :  +0.000000 (K)
 NVT Kinetic energy   :  +0.000000 (Rydberg)
 NVT Potential energy : -16.104924 (Rydberg)
 maxForce             :  +0.007972
 maxStep              :  +0.041509
 MD_STEP             SystemE             Conserved           DeltaE              Temperature         
 +1                  -8.052462           -8.052462           +0.000000           +175.027577         

 PW ALGORITHM --------------- ION=+2    ELEC=+1  --------------------------------
 K-point CG iter num    Time(Sec)      
 +1      +55.142857     +5.680000      

 Density error is +0.003488598323

 PW ALGORITHM --------------- ION=+2    ELEC=+2  --------------------------------
 K-point CG iter num    Time(Sec)      
 +1      +2.214286      +0.300000      

 Density error is +0.000064088512

 PW ALGORITHM --------------- ION=+2    ELEC=+3  --------------------------------
 K-point CG iter num    Time(Sec)      
 +1      +4.071429      +0.480000      

 Density error is +0.000016147980

 PW ALGORITHM --------------- ION=+2    ELEC=+4  --------------------------------
 K-point CG iter num    Time(Sec)      
 +1      +3.214286      +0.410000      

 Density error is +0.000001278683

 PW ALGORITHM --------------- ION=+2    ELEC=+5  --------------------------------
 K-point CG iter num    Time(Sec)      
 +1      +5.071429      +0.600000      

 Density error is +0.000000184850

 PW ALGORITHM --------------- ION=+2    ELEC=+6  --------------------------------
 K-point CG iter num    Time(Sec)      
 +1      +3.214286      +0.410000      

 Density error is +0.000000013531

 PW ALGORITHM --------------- ION=+2    ELEC=+7  --------------------------------
 K-point CG iter num    Time(Sec)      
 +1      +5.285714      +0.610000      

 Density error is +0.000000010165

 PW ALGORITHM --------------- ION=+2    ELEC=+8  --------------------------------
 K-point CG iter num    Time(Sec)      
 +1      +2.000000      +0.290000      

 Density error is +0.000000003623

 PW ALGORITHM --------------- ION=+2    ELEC=+9  --------------------------------
 K-point CG iter num    Time(Sec)      
 +1      +2.928571      +0.370000      

 Density error is +0.000000000004

 charge density convergence is achieved
 final etot is -219.434191715312 eV



 ><><><><><><><><><><><><><><><><><><><><><><

    TOTAL-FORCE (eV/Angstrom)

 ><><><><><><><><><><><><><><><><><><><><><><

 atom    x              y              z              
 H1      +1.133157      -1.856662      -2.608308      
 H2      -3.288841      +0.401876      -0.196306      
 H3      +1.454909      +2.915560      -0.103398      
 H4      +0.716634      -1.407419      +2.547272      
 C1      -0.015860      -0.053356      +0.360740      


 ><><><><><><><><><><><><><><><><><><><><><><

 TOTAL-STRESS (KBAR)

 ><><><><><><><><><><><><><><><><><><><><><><

 +8.401340      -0.025640      -0.170148      
 -0.025640      +8.286073      +0.280673      
 -0.170148      +0.280673      +8.068639      

output Pressure for check!
Virtual Pressure is +16.617778 Kbar 
Virial Term is +16.504034 Kbar 
Kenetic Term is +0.113744 Kbar 

 --------------------------------------------------
 Molecular Dynamics (NVT) STEP 2
 --------------------------------------------------
--------------------------------------------------
            SUMMARY OF NVT CALCULATION            
 --------------------------------------------------
 NVT Conservation     : -16.107810 (Rydberg)
 NVT Temperature      : +533.989848 (K)
 NVT Kinetic energy   : +0.020293  (Rydberg)
 NVT Potential energy : -16.128110 (Rydberg)
 maxForce             : +0.004362 
 maxStep              : +0.102614 
 MD_STEP             SystemE             Conserved           DeltaE              Temperature         
 +2                  -8.064055           -8.053905           +0.000000           +1078.821137        

 PW ALGORITHM --------------- ION=+3    ELEC=+1  --------------------------------
 K-point CG iter num    Time(Sec)      
 +1      +53.785714     +5.530000      

 Density error is +0.019612648889

 PW ALGORITHM --------------- ION=+3    ELEC=+2  --------------------------------
 K-point CG iter num    Time(Sec)      
 +1      +2.214286      +0.300000      

 Density error is +0.000290072895

 PW ALGORITHM --------------- ION=+3    ELEC=+3  --------------------------------
 K-point CG iter num    Time(Sec)      
 +1      +4.142857      +0.490000      

 Density error is +0.000099169017

 PW ALGORITHM --------------- ION=+3    ELEC=+4  --------------------------------
 K-point CG iter num    Time(Sec)      
 +1      +2.714286      +0.350000      

 Density error is +0.000008092362

 PW ALGORITHM --------------- ION=+3    ELEC=+5  --------------------------------
 K-point CG iter num    Time(Sec)      
 +1      +4.428571      +0.530000      

 Density error is +0.000001211193

 PW ALGORITHM --------------- ION=+3    ELEC=+6  --------------------------------
 K-point CG iter num    Time(Sec)      
 +1      +3.357143      +0.420000      

 Density error is +0.000000051304

 PW ALGORITHM --------------- ION=+3    ELEC=+7  --------------------------------
 K-point CG iter num    Time(Sec)      
 +1      +5.500000      +0.630000      

 Density error is +0.000000007503

 PW ALGORITHM --------------- ION=+3    ELEC=+8  --------------------------------
 K-point CG iter num    Time(Sec)      
 +1      +4.857143      +0.580000      

 Density error is +0.000000014633

 PW ALGORITHM --------------- ION=+3    ELEC=+9  --------------------------------
 K-point CG iter num    Time(Sec)      
 +1      +2.214286      +0.300000      

 Density error is +0.000000002243

 PW ALGORITHM --------------- ION=+3    ELEC=+10 --------------------------------
 K-point CG iter num    Time(Sec)      
 +1      +4.142857      +0.500000      

 Density error is +0.000000000398

 charge density convergence is achieved
 final etot is -219.861273145100 eV



 ><><><><><><><><><><><><><><><><><><><><><><

    TOTAL-FORCE (eV/Angstrom)

 ><><><><><><><><><><><><><><><><><><><><><><

 atom    x              y              z              
 H1      +0.370637      -0.522900      -0.745579      
 H2      -0.985036      +0.136881      -0.067108      
 H3      +0.457129      +0.867257      -0.061860      
 H4      +0.261706      -0.471416      +0.808625      
 C1      -0.104436      -0.009822      +0.065922      


 ><><><><><><><><><><><><><><><><><><><><><><

 TOTAL-STRESS (KBAR)

 ><><><><><><><><><><><><><><><><><><><><><><

 +2.700073      -0.048954      -0.024676      
 -0.048954      +2.601966      -0.047102      
 -0.024676      -0.047102      +2.553528      

output Pressure for check!
Virtual Pressure is +5.938130 Kbar 
Virial Term is +5.237045 Kbar 
Kenetic Term is +0.701085 Kbar 

 --------------------------------------------------
 Molecular Dynamics (NVT) STEP 3
 --------------------------------------------------
--------------------------------------------------
            SUMMARY OF NVT CALCULATION            
 --------------------------------------------------
 NVT Conservation     : -16.110343 (Rydberg)
 NVT Temperature      : +1283.993234 (K)
 NVT Kinetic energy   : +0.048794  (Rydberg)
 NVT Potential energy : -16.159500 (Rydberg)
 maxForce             : +0.000376 
 maxStep              : +0.119327 
 MD_STEP             SystemE             Conserved           DeltaE              Temperature         
 +3                  -8.079750           -8.055171           +0.000000           +1471.487172        


 --------------------------------------------
 !FINAL_ETOT_IS -219.8612731451002276 eV
 --------------------------------------------






  |CLASS_NAME---------|NAME---------------|TIME(Sec)-----|CALLS----|AVG------|PER%-------
                       total               +68.402        15        +4.56     +100.00   %
   Run_pw              plane_wave_line     +68.38         1         +68.38    +99.97    %
   PW_Basis            gen_pw              +0.25          1         +0.25     +0.37     %
   Run_MD_PW           md_cells_pw         +68.05         1         +68.05    +99.48    %
   ppcell_vl           init_vloc           +3.69          1         +3.69     +5.39     %
   Potential           init_pot            +0.71          4         +0.18     +1.04     %
   FFT                 FFT3D               +23.26         8449      +0.00     +34.00    %
   Charge              atomic_rho          +2.26          7         +0.32     +3.31     %
   Potential           v_of_rho            +3.00          34        +0.09     +4.38     %
   H_XC_pw             v_xc                +2.82          37        +0.08     +4.13     %
   H_Hartree_pw        v_hartree           +0.36          34        +0.01     +0.53     %
   wavefunc            wfcinit             +0.99          4         +0.25     +1.44     %
   pp_cell_vnl         getvnl              +0.14          40        +0.00     +0.20     %
   Hamilt_PW           diagH_subspace      +2.84          34        +0.08     +4.15     %
   Hamilt_PW           h_psi               +24.69         3320      +0.01     +36.09    %
   Hamilt_PW           vloc                +22.48         3320      +0.01     +32.86    %
   Hamilt_PW           vnl                 +2.12          3320      +0.00     +3.10     %
   Hamilt_PW           add_nonlocal_pp     +0.94          3320      +0.00     +1.37     %
   Run_MD_PW           md_ions_pw          +63.66         1         +63.66    +93.06    %
   Electrons           self_consistent     +54.24         3         +18.08    +79.30    %
   Electrons           c_bands             +26.27         30        +0.88     +38.41    %
   Hamilt              diagH_pw            +26.15         30        +0.87     +38.23    %
   Diago_CG            diag                +23.65         32        +0.74     +34.57    %
   Charge              sum_band            +2.40          30        +0.08     +3.50     %
   Charge              rho_mpi             +0.91          30        +0.03     +1.33     %
   Charge              mix_rho             +0.81          30        +0.03     +1.18     %
   Forces              cal_force_nl        +0.22          3         +0.07     +0.33     %
   Stress_PW           cal_stress          +3.14          3         +1.05     +4.59     %
   Stress_Func         stress_ew           +20.85         2         +10.42    +30.48    %
   Force_Func          stress_ew           +20.85         2         +10.42    +30.48    %
   Stress_Func         stress_gga          +0.12          3         +0.04     +0.17     %
   Stress_Func         stress_loc          +1.30          3         +0.43     +1.91     %
   Stress_Func         stres_nl            +1.62          3         +0.54     +2.36     %
 ----------------------------------------------------------------------------------------

 CLASS_NAME---------|NAME---------------|MEMORY(MB)--------
                                         +64.7285
 Charge_Pulay        Rrho                +11.8652       
 Charge_Pulay        dRrho               +10.3821       
 Charge_Pulay        drho                +10.3821       
 Use_FFT             porter              +2.9663        
 PW_Basis            struc_fac           +2.5229        
 wavefunc            evc                 +2.2076        
 Charge              rho                 +1.4832        
 Charge              rho_save            +1.4832        
 Charge              rho_core            +1.4832        
 Potential           vltot               +1.4832        
 Potential           vr                  +1.4832        
 Potential           vr_eff              +1.4832        
 Potential           vr_eff1             +1.4832        
 Potential           vnew                +1.4832        
 Charge_Pulay        rho_save2           +1.4832        
 ----------------------------------------------------------

 Start  Time  : Fri Nov 12 18:17:38 2021
 Finish Time  : Fri Nov 12 18:18:46 2021
 Total  Time  : 0 h 1 mins 8 secs 
