-5.173204853991619530e+03
-5.182381855743868982e+03
-5.182144856406619510e+03
