6.465999999999999659e+01 1.109939999999999998e+02 8.727769999999999584e+01 6.371959999999999980e+01 1.108629999999999995e+02 8.911790000000000589e+01 6.542210000000000036e+01 1.117549999999999955e+02 8.862860000000000582e+01 6.348219999999999885e+01 1.127819999999999965e+02 8.801829999999999643e+01 6.426189999999999714e+01 1.114090000000000060e+02 8.825350000000000250e+01 6.249210000000000065e+01 1.138940000000000055e+02 8.721080000000000609e+01 6.233550000000000324e+01 1.161740000000000066e+02 8.854089999999999350e+01 6.125330000000000297e+01 1.148439999999999941e+02 8.838540000000000418e+01 6.118599999999999994e+01 1.150010000000000048e+02 8.722759999999999536e+01
3.151409999999999911e+01 1.260949999999999989e+02 1.166099999999999994e+02 3.117539999999999978e+01 1.246710000000000065e+02 1.172459999999999951e+02 3.133940000000000126e+01 1.259879999999999995e+02 1.187150000000000034e+02 3.249309999999999832e+01 1.252030000000000030e+02 1.170729999999999933e+02 3.155409999999999826e+01 1.255600000000000023e+02 1.177229999999999990e+02 3.220360000000000156e+01 1.278900000000000006e+02 1.151710000000000065e+02 3.150199999999999889e+01 1.270870000000000033e+02 1.142540000000000049e+02 3.324499999999999744e+01 1.267079999999999984e+02 1.145720000000000027e+02 3.409790000000000276e+01 1.271099999999999994e+02 1.155340000000000060e+02
