-7.046036071313885259e+03
-7.050541844841041893e+03
