4.553979999999999961e+01 1.087640000000000029e+01 6.755280000000000484e+01 4.418460000000000321e+01 1.120650000000000013e+01 6.643110000000000070e+01 4.546009999999999707e+01 9.771390000000000242e+00 6.615399999999999636e+01 4.590990000000000038e+01 1.137119999999999997e+01 6.584980000000000189e+01 4.247449999999999903e+01 1.048170000000000002e+01 6.343019999999999925e+01 4.423619999999999663e+01 1.060660000000000025e+01 6.295649999999999835e+01 4.347209999999999752e+01 9.342109999999999914e+00 6.435160000000000480e+01 4.395620000000000260e+01 1.072610000000000063e+01 6.492289999999999850e+01 4.527459999999999951e+01 1.088550000000000040e+01 6.651659999999999684e+01 4.346359999999999957e+01 1.009440000000000026e+01 6.350030000000000285e+01
8.160139999999999816e+01 1.069420000000000037e+01 1.026419999999999959e+02 8.324899999999999523e+01 1.009570000000000078e+01 1.016830000000000069e+02 8.188400000000000034e+01 1.064569999999999972e+01 1.007090000000000032e+02 8.166419999999999391e+01 8.944209999999999994e+00 1.018490000000000038e+02 8.061520000000000152e+01 6.329010000000000247e+00 1.012500000000000000e+02 7.955429999999999779e+01 7.929319999999999702e+00 1.013640000000000043e+02 8.104130000000000678e+01 7.817940000000000111e+00 1.005810000000000031e+02 8.074150000000000205e+01 7.735059999999999825e+00 1.025480000000000018e+02 8.223569999999999425e+01 1.039419999999999966e+01 1.017030000000000030e+02 8.048629999999999995e+01 7.346169999999999867e+00 1.014579999999999984e+02
8.139539999999999509e+01 1.136090000000000089e+01 1.022560000000000002e+02 8.220380000000000109e+01 1.029139999999999944e+01 1.012129999999999939e+02 8.343340000000000600e+01 1.115039999999999942e+01 1.022590000000000003e+02 8.256950000000000500e+01 1.215109999999999957e+01 1.009800000000000040e+02 8.013890000000000668e+01 8.198869999999999436e+00 9.984529999999999461e+01 8.107760000000000389e+01 9.540960000000000107e+00 9.969029999999999347e+01 8.207470000000000709e+01 8.312860000000000582e+00 9.987069999999999936e+01 8.134850000000000136e+01 8.508340000000000458e+00 1.013949999999999960e+02 8.246890000000000498e+01 1.158249999999999957e+01 1.018979999999999961e+02 8.110160000000000480e+01 8.642519999999999314e+00 1.001719999999999970e+02
7.360699999999999932e+01 1.246500000000000057e+02 8.733669999999999334e+01 7.369989999999999952e+01 1.258259999999999934e+02 8.548569999999999425e+01 7.514270000000000493e+01 1.250190000000000055e+02 8.603740000000000521e+01 7.478209999999999980e+01 1.259759999999999991e+02 8.749540000000000362e+01 7.518240000000000123e+01 1.260120000000000005e+02 8.832840000000000202e+01 7.628319999999999368e+01 1.272330000000000041e+02 8.932999999999999829e+01 7.679229999999999734e+01 1.253880000000000052e+02 8.909590000000000032e+01 7.522790000000000532e+01 1.257879999999999967e+02 9.014660000000000650e+01 7.407940000000000680e+01 1.252849999999999966e+02 8.628810000000000002e+01 7.610380000000000678e+01 1.261430000000000007e+02 8.955580000000000496e+01
4.571620000000000061e+01 1.044800000000000040e+01 6.671309999999999718e+01 4.395839999999999748e+01 1.127369999999999983e+01 6.688670000000000471e+01 4.439309999999999690e+01 1.042329999999999934e+01 6.561369999999999436e+01 4.505639999999999645e+01 1.193500000000000050e+01 6.563970000000000482e+01 4.278750000000000142e+01 1.087390000000000079e+01 6.376680000000000348e+01 4.355080000000000240e+01 9.626229999999999620e+00 6.256369999999999720e+01 4.252400000000000091e+01 8.977430000000000021e+00 6.385840000000000316e+01 4.391610000000000014e+01 1.005090000000000039e+01 6.418349999999999511e+01 4.492669999999999675e+01 1.115070000000000050e+01 6.640670000000000073e+01 4.313170000000000215e+01 9.842729999999999535e+00 6.357880000000000109e+01
7.792839999999999634e+01 1.600939999999999941e+01 9.392029999999999745e+01 7.826890000000000214e+01 1.749859999999999971e+01 9.441400000000000148e+01 7.967159999999999798e+01 1.662630000000000052e+01 9.391620000000000346e+01 7.895680000000000121e+01 1.623339999999999961e+01 9.558469999999999800e+01 7.741549999999999443e+01 2.065299999999999869e+01 9.519710000000000605e+01 7.732510000000000616e+01 1.887349999999999994e+01 9.590389999999999304e+01 7.873850000000000193e+01 1.955389999999999873e+01 9.532769999999999300e+01 7.756199999999999761e+01 1.893629999999999924e+01 9.424909999999999854e+01 7.885120000000000573e+01 1.617079999999999984e+01 9.448170000000000357e+01 7.758889999999999532e+01 1.957829999999999870e+01 9.514969999999999573e+01
