-2.201690652185696308e+03
-2.202219462241215297e+03
-2.202036585426021702e+03
-2.199860625556128980e+03
-2.203713706748298591e+03
-2.202474443961836187e+03
