5.783758231660058868e-01 4.518988259101792693e-01 7.218398433022994443e-01 1.485993774645383070e+00 -4.532004727042074355e-01 5.180639600864401367e-02 -1.017531952223146741e+00 1.884225754145624876e+00 8.513004517572374530e-01 1.080072859083676340e+00 1.723270774867596167e+00 -7.120061956505316925e-01 -7.137677614160682360e-01 5.292715539591078544e-01 -3.787763374264388472e-01 5.055163071353393489e-01 -8.494809333216551961e-01 -4.108134167496744205e-01 6.994952580556090815e-01 -4.385380358060753103e-01 -2.441977420176495883e+00 -1.705800744507324218e+00 -4.647654499458355737e-01 -3.763020258102332427e+00 -1.670099020123320788e+00 -3.482274127359681781e+00 -1.291060532996887722e-01 7.577455076059139705e-01 1.099592058832879804e+00 6.210753041759048187e+00
2.011581605956689334e+00 3.271426167203803081e-01 -1.951405394291126250e+00 1.262164776353713602e+00 4.401123224018630986e-01 7.818806606641973689e-01 -3.359389270049481513e-01 4.921046091844340498e-01 1.567225317481870106e-01 2.004642043684556452e+00 4.442505389930540893e+00 -7.029118430628711334e-01 -8.587267238980335060e-01 -1.877811468292762909e+00 3.714074523129464178e-01 -6.306750482693429527e-01 -1.418580935423876532e+00 -3.362166061693203090e-01 8.547499468876842976e-02 -2.584457170519224856e-01 1.595979509173282018e+00 4.383470542474682263e-01 -1.374052458891359407e+00 -2.290191561172238544e+00 -4.336210474295755901e+00 -4.737294835878908650e+00 1.853147799224957648e+00 3.593406471148167802e-01 3.964320425879543919e+00 5.215874001499180013e-01
2.139418408364859747e+00 1.324639914389940776e+00 5.467961431329722011e-01 1.109774708056609382e+00 3.518072730918810453e+00 1.397556046116898543e+00 -1.107634110231704883e+00 1.015755834012514569e+00 7.892489287128802156e-01 -1.270858345347463669e-01 5.889591531395109714e-01 2.737629111352306577e-01 1.010466611573967111e+00 -9.146257508350508214e-01 3.013710077867302606e-01 -2.010552958918893074e-01 3.485885499158544398e+00 -9.273481359714361161e-02 1.809464392949346467e-01 -1.559365094513641470e+00 -1.170419066224476889e+00 -1.607347179942003379e+00 1.171718758979941155e+00 -3.128368535666775418e+00 -1.726817611971775746e+00 -5.994588656890927680e+00 -2.763530920960806547e+00 3.293338138596815234e-01 -2.636452388359642018e+00 3.846318402408625658e+00
7.018084283389641742e-01 1.479571826904467091e+00 -4.502431124705426946e+00 -1.807463200349370247e+00 1.159389598393547383e+00 -6.768028539445088976e-01 -1.269182294480140305e+00 -8.427024763869258583e-01 1.183549331200084431e-01 -1.845452795359530551e+00 -7.237784552461569432e-02 -3.067956245289428452e+00 2.004151888537372361e+00 5.165800220632084105e-01 2.589195816881303180e+00 1.393414615646490148e-02 -1.326609842372891146e+00 9.468466640495142306e-01 -3.175804775848876105e-01 8.190016855326148759e-01 1.127808015744017123e+00 1.320939325304006928e+00 5.238414350556753751e-01 2.425714162895758197e-01 3.523191283515404226e+00 -1.948760140296009080e+00 6.984935613233770546e+00 -2.324346304078284131e+00 -3.079343147911385858e-01 -3.762522235378824575e+00
-9.364441854873234439e-02 1.179962024928800979e+00 6.224963170151658343e-01 6.858803915161046927e-01 4.632146632348845272e-01 1.468986337204128079e+00 1.335276466203283885e+00 8.891162916013950479e-01 1.498699036233298587e+00 9.860505397610602740e-01 1.964930786433221610e-01 1.083097196560228737e+00 -1.559357484047654729e+00 -4.481880038328175941e-01 -1.163960300283248150e+00 -5.737164696319759782e-01 7.047799553522186011e-01 5.719035846430980952e-01 -1.509974558657102561e-01 6.038452760311651124e-01 4.394969030983064129e-01 3.137401798838273859e+00 -1.084258872486586478e+00 1.992934061673276691e+00 -2.647490083721367959e+00 -2.542723894730585688e+00 -4.096305549315164996e+00 -1.119403284503281526e+00 3.775942983613605336e-02 -2.417347535407022630e+00
3.977196100199076323e-01 -1.690753567700334248e+00 3.139987763189591163e-01 1.672304718285650305e+00 -3.160237721939700428e+00 5.290522388413213539e-01 2.894265871091942777e-01 -1.197352505350687046e+00 -3.371600982633759375e-02 -2.559441363133341807e-01 -9.913196047491570351e-01 -8.397967696200410170e-01 -1.126967264940779145e+00 -3.686981778438211954e-01 -2.432587236434643752e-01 -1.225156365813069081e+00 2.616801650961834147e-01 1.204193234409130397e+00 -1.349990068058554815e+00 1.631385659513431563e-01 -2.888525111478886243e-01 -7.650696555207019411e-01 1.393534429063710167e+00 -3.547123010874750904e-01 -1.886193111025201485e+00 6.445204759327910260e+00 -8.378315724672984188e-02 4.249869686256888990e+00 -8.551963932775138444e-01 -2.031248284195414922e-01
