8.185840000000000316e+01 9.316899999999999693e+01 1.059579999999999984e+02 8.261737399999999809e+01 9.393108900000000006e+01 1.061348559999999992e+02 7.982439999999999714e+01 9.672249999999999659e+01 1.044729999999999990e+02 8.035529999999999973e+01 9.660139999999999816e+01 1.054689999999999941e+02 7.869350000000000023e+01 9.323820000000000618e+01 1.038930000000000007e+02 7.789889999999999759e+01 9.358589999999999520e+01 1.031919999999999931e+02
