3.414886536373305859e+00 3.429010532802893696e+00 7.917642391434847049e-01 -3.417401024050831015e+00 -3.431394511273163417e+00 -7.939635609694470908e-01 1.936041097594009663e+00 -4.540610210034237704e-01 3.637080210075093856e+00 -1.936580875036308491e+00 4.522698875490883674e-01 -3.635910049507602437e+00 -1.035043891568411922e+00 4.616225846037500524e-01 -9.151305098493983659e-01 1.038098156688235907e+00 -4.574475241012121995e-01 9.161596711078696664e-01
