 vasp.5.4.4.18Apr17-6-g9f103f2a35 (build Jul 12 2018 13:43:46) complex           
 executed on             LinuxGNU date 2019.06.24  12:57:34
 running on    1 total cores
 distrk:  each k-point on    1 cores,    1 groups
 distr:  one band on NCORES_PER_BAND=   1 cores,    1 groups


--------------------------------------------------------------------------------------------------------


 INCAR:
 POTCAR:    PAW_PBE H 15Jun2001                   
 POTCAR:    PAW_PBE C 08Apr2002                   
 POTCAR:    PAW_PBE H 15Jun2001                   
   VRHFIN =H: ultrasoft test                                                    
   LEXCH  = PE                                                                  
   EATOM  =    12.4884 eV,    0.9179 Ry                                         
                                                                                
   TITEL  = PAW_PBE H 15Jun2001                                                 
   LULTRA =        F    use ultrasoft PP ?                                      
   IUNSCR =        0    unscreen: 0-lin 1-nonlin 2-no                           
   RPACOR =    0.000    partial core radius                                     
   POMASS =    1.000; ZVAL   =    1.000    mass and valenz                      
   RCORE  =    1.100    outmost cutoff radius                                   
   RWIGS  =    0.700; RWIGS  =    0.370    wigner-seitz radius (au A)           
   ENMAX  =  250.000; ENMIN  =  200.000 eV                                      
   RCLOC  =    0.701    cutoff for local pot                                    
   LCOR   =        T    correct aug charges                                     
   LPAW   =        T    paw PP                                                  
   EAUG   =  400.000                                                            
   RMAX   =    1.123    core radius for proj-oper                               
   RAUG   =    1.200    factor for augmentation sphere                          
   RDEP   =    1.112    radius for radial grids                                 
   RDEPT  =    0.926    core radius for aug-charge                              
                                                                                
   Atomic configuration                                                         
    2 entries                                                                   
     n  l   j            E        occ.                                          
     1  0  0.50        -6.4927   1.0000                                         
     2  1  0.50        -3.4015   0.0000                                         
   Description                                                                  
     l       E           TYP  RCUT    TYP  RCUT                                 
     0     -6.4927494     23  1.100                                             
     0      6.8029130     23  1.100                                             
     1     -4.0817478     23  1.100                                             
  local pseudopotential read in
  atomic valenz-charges read in
  non local Contribution for L=           0  read in
    real space projection operators read in
  non local Contribution for L=           0  read in
    real space projection operators read in
  non local Contribution for L=           1  read in
    real space projection operators read in
    PAW grid and wavefunctions read in

   number of l-projection  operators is LMAX  =           3
   number of lm-projection operators is LMMAX =           5

 POTCAR:    PAW_PBE C 08Apr2002                   
   VRHFIN =C: s2p2                                                              
   LEXCH  = PE                                                                  
   EATOM  =   147.1560 eV,   10.8157 Ry                                         
                                                                                
   TITEL  = PAW_PBE C 08Apr2002                                                 
   LULTRA =        F    use ultrasoft PP ?                                      
   IUNSCR =        1    unscreen: 0-lin 1-nonlin 2-no                           
   RPACOR =    1.200    partial core radius                                     
   POMASS =   12.011; ZVAL   =    4.000    mass and valenz                      
   RCORE  =    1.500    outmost cutoff radius                                   
   RWIGS  =    1.630; RWIGS  =    0.863    wigner-seitz radius (au A)           
   ENMAX  =  400.000; ENMIN  =  300.000 eV                                      
   ICORE  =        2    local potential                                         
   LCOR   =        T    correct aug charges                                     
   LPAW   =        T    paw PP                                                  
   EAUG   =  644.873                                                            
   DEXC   =    0.000                                                            
   RMAX   =    1.529    core radius for proj-oper                               
   RAUG   =    1.300    factor for augmentation sphere                          
   RDEP   =    1.501    radius for radial grids                                 
   RDEPT  =    1.300    core radius for aug-charge                              
                                                                                
   Atomic configuration                                                         
    4 entries                                                                   
     n  l   j            E        occ.                                          
     1  0  0.50      -273.3789   2.0000                                         
     2  0  0.50       -13.7508   2.0000                                         
     2  1  0.50        -5.2854   2.0000                                         
     3  2  1.50        -5.4423   0.0000                                         
   Description                                                                  
     l       E           TYP  RCUT    TYP  RCUT                                 
     0    -13.7508458     23  1.200                                             
     0     -8.2022199     23  1.200                                             
     1     -5.2854383     23  1.500                                             
     1     34.0145650     23  1.500                                             
     2     -5.4423304      7  1.500                                             
  local pseudopotential read in
  partial core-charges read in
  partial kinetic energy density read in
  atomic valenz-charges read in
  non local Contribution for L=           0  read in
    real space projection operators read in
  non local Contribution for L=           0  read in
    real space projection operators read in
  non local Contribution for L=           1  read in
    real space projection operators read in
  non local Contribution for L=           1  read in
    real space projection operators read in
    PAW grid and wavefunctions read in

   number of l-projection  operators is LMAX  =           4
   number of lm-projection operators is LMMAX =           8


 ----------------------------------------------------------------------------- 
|                                                                             |
|  ADVICE TO THIS USER RUNNING 'VASP/VAMP'   (HEAR YOUR MASTER'S VOICE ...):  |
|                                                                             |
|      You have a (more or less) 'small supercell' and for smaller cells      |
|      it is recommended  to use the reciprocal-space projection scheme!      |
|      The real space optimization is not  efficient for small cells and it   |
|      is also less accurate ...                                              |
|      Therefore set LREAL=.FALSE. in the  INCAR file                         |
|                                                                             |
 ----------------------------------------------------------------------------- 

 Optimization of the real space projectors (new method)

 maximal supplied QI-value         = 34.20
 optimisation between [QCUT,QGAM] = [  9.92, 20.18] = [ 27.55,114.04] Ry 
 Optimized for a Real-space Cutoff    1.34 Angstroem

   l    n(q)    QCUT    max X(q) W(low)/X(q) W(high)/X(q)  e(spline) 
   0      8     9.919    19.460    0.16E-03    0.20E-03    0.36E-06
   0      8     9.919    12.209    0.16E-03    0.20E-03    0.35E-06
   1      8     9.919     4.655    0.19E-03    0.46E-03    0.40E-06
 Optimization of the real space projectors (new method)

 maximal supplied QI-value         = 25.13
 optimisation between [QCUT,QGAM] = [ 10.05, 20.36] = [ 28.30,116.06] Ry 
 Optimized for a Real-space Cutoff    1.51 Angstroem

   l    n(q)    QCUT    max X(q) W(low)/X(q) W(high)/X(q)  e(spline) 
   0      9    10.053   115.676    0.19E-03    0.21E-03    0.38E-06
   0      9    10.053    87.132    0.19E-03    0.21E-03    0.38E-06
   1      9    10.053     4.429    0.87E-04    0.11E-03    0.39E-06
   1      9    10.053     2.733    0.59E-04    0.62E-04    0.43E-06
  PAW_PBE H 15Jun2001                   :
 energy of atom  1       EATOM=  -12.4884
 kinetic energy error for atom=    0.0098 (will be added to EATOM!!)
  PAW_PBE C 08Apr2002                   :
 energy of atom  2       EATOM= -147.1560
 kinetic energy error for atom=    0.0288 (will be added to EATOM!!)


 POSCAR: POSCAR file written by OVITO            
  positions in cartesian coordinates
  No initial velocities read in
 exchange correlation table for  LEXCH =        8
   RHO(1)=    0.500       N(1)  =     2000
   RHO(2)=  100.500       N(2)  =     4000



--------------------------------------------------------------------------------------------------------


 ion  position               nearest neighbor table
   1  0.480  0.390  0.322-   5 1.12
   2  0.385  0.515  0.489-   5 1.09
   3  0.588  0.579  0.424-   5 1.12
   4  0.555  0.391  0.561-   5 1.16
   5  0.504  0.467  0.444-   2 1.09   3 1.12   1 1.12   4 1.16


IMPORTANT INFORMATION: All symmetrisations will be switched off!
NOSYMM: (Re-)initialisation of all symmetry stuff for point group C_1.




Automatic generation of k-mesh.
 generate k-points for:    1    1    1
Space group operators:
 irot       det(A)        alpha          n_x          n_y          n_z        tau_x        tau_y        tau_z
    1     1.000000     0.000000     1.000000     0.000000     0.000000     0.000000     0.000000     0.000000
 
 Subroutine IBZKPT returns following result:
 ===========================================
 
 Found      1 irreducible k-points:
 
 Following reciprocal coordinates:
            Coordinates               Weight
  0.000000  0.000000  0.000000      1.000000
 
 Following cartesian coordinates:
            Coordinates               Weight
  0.000000  0.000000  0.000000      1.000000
 


--------------------------------------------------------------------------------------------------------




 Dimension of arrays:
   k-points           NKPTS =      1   k-points in BZ     NKDIM =      1   number of bands    NBANDS=      8
   number of dos      NEDOS =    301   number of ions     NIONS =      5
   non local maximal  LDIM  =      4   non local SUM 2l+1 LMDIM =      8
   total plane-waves  NPLWV = 145800
   max r-space proj   IRMAX =   4334   max aug-charges    IRDMAX=   3715
   dimension x,y,z NGX =    54 NGY =   54 NGZ =   50
   dimension x,y,z NGXF=   108 NGYF=  108 NGZF=  100
   support grid    NGXF=   108 NGYF=  108 NGZF=  100
   ions per type =               4   1
   NGX,Y,Z   is equivalent  to a cutoff of  11.29, 11.22, 10.80 a.u.
   NGXF,Y,Z  is equivalent  to a cutoff of  22.57, 22.45, 21.60 a.u.

 SYSTEM =  unknown system                          
 POSCAR =  POSCAR file written by OVITO            

 Startparameter for this run:
   NWRITE =      2    write-flag & timer
   PREC   = a         normal or accurate (medium, high low for compatibility)
   ISTART =      0    job   : 0-new  1-cont  2-samecut
   ICHARG =      2    charge: 1-file 2-atom 10-const
   ISPIN  =      1    spin polarized calculation?
   LNONCOLLINEAR =      F non collinear calculations
   LSORBIT =      F    spin-orbit coupling
   INIWAV =      1    electr: 0-lowe 1-rand  2-diag
   LASPH  =      F    aspherical Exc in radial PAW
   METAGGA=      F    non-selfconsistent MetaGGA calc.

 Electronic Relaxation 1
   ENCUT  =  400.0 eV  29.40 Ry    5.42 a.u.  12.97 13.04 12.55*2*pi/ulx,y,z
   ENINI  =  400.0     initial cutoff
   ENAUG  =  644.9 eV  augmentation charge cutoff
   NELM   =    120;   NELMIN=  4; NELMDL= -5     # of ELM steps 
   EDIFF  = 0.1E-05   stopping-criterion for ELM
   LREAL  =      T    real-space projection
   NLSPLINE    = F    spline interpolate recip. space projectors
   LCOMPAT=      F    compatible to vasp.4.4
   GGA_COMPAT  = T    GGA compatible to vasp.4.4-vasp.4.6
   LMAXPAW     = -100 max onsite density
   LMAXMIX     =    2 max onsite mixed and CHGCAR
   VOSKOWN=      0    Vosko Wilk Nusair interpolation
   ROPT   =   -0.00025  -0.00025
 Ionic relaxation
   EDIFFG = 0.1E-04   stopping-criterion for IOM
   NSW    =      0    number of steps for IOM
   NBLOCK =      1;   KBLOCK =      1    inner block; outer block 
   IBRION =     -1    ionic relax: 0-MD 1-quasi-New 2-CG
   NFREE  =      0    steps in history (QN), initial steepest desc. (CG)
   ISIF   =      2    stress and relaxation
   IWAVPR =     10    prediction:  0-non 1-charg 2-wave 3-comb
   ISYM   =      0    0-nonsym 1-usesym 2-fastsym
   LCORR  =      T    Harris-Foulkes like correction to forces

   POTIM  = 0.5000    time-step for ionic-motion
   TEIN   =    0.0    initial temperature
   TEBEG  =    0.0;   TEEND  =   0.0 temperature during run
   SMASS  =  -3.00    Nose mass-parameter (am)
   estimated Nose-frequenzy (Omega)   =  0.10E-29 period in steps =****** mass=  -0.145E-26a.u.
   SCALEE = 1.0000    scale energy and forces
   NPACO  =    256;   APACO  = 16.0  distance and # of slots for P.C.
   PSTRESS=    0.0 pullay stress

  Mass of Ions in am
   POMASS =   1.00 12.01
  Ionic Valenz
   ZVAL   =   1.00  4.00
  Atomic Wigner-Seitz radii
   RWIGS  =  -1.00 -1.00
  virtual crystal weights 
   VCA    =   1.00  1.00
   NELECT =       8.0000    total number of electrons
   NUPDOWN=      -1.0000    fix difference up-down

 DOS related values:
   EMIN   =  10.00;   EMAX   =-10.00  energy-range for DOS
   EFERMI =   0.00
   ISMEAR =     0;   SIGMA  =   0.05  broadening in eV -4-tet -1-fermi 0-gaus

 Electronic relaxation 2 (details)
   IALGO  =     38    algorithm
   LDIAG  =      T    sub-space diagonalisation (order eigenvalues)
   LSUBROT=      F    optimize rotation matrix (better conditioning)
   TURBO    =      0    0=normal 1=particle mesh
   IRESTART =      0    0=no restart 2=restart with 2 vectors
   NREBOOT  =      0    no. of reboots
   NMIN     =      0    reboot dimension
   EREF     =   0.00    reference energy to select bands
   IMIX   =      4    mixing-type and parameters
     AMIX     =   0.40;   BMIX     =  1.00
     AMIX_MAG =   1.60;   BMIX_MAG =  1.00
     AMIN     =   0.10
     WC   =   100.;   INIMIX=   1;  MIXPRE=   1;  MAXMIX= -45

 Intra band minimization:
   WEIMIN = 0.0000     energy-eigenvalue tresh-hold
   EBREAK =  0.31E-07  absolut break condition
   DEPER  =   0.30     relativ break condition  

   TIME   =   0.40     timestep for ELM

  volume/ion in A,a.u.               =      97.87       660.43
  Fermi-wavevector in a.u.,A,eV,Ry     =   0.415500  0.785182  2.348917  0.172641
  Thomas-Fermi vector in A             =   1.374484

 Write flags
   LWAVE        =      F    write WAVECAR
   LDOWNSAMPLE  =      F    k-point downsampling of WAVECAR
   LCHARG       =      F    write CHGCAR
   LVTOT        =      F    write LOCPOT, total local potential
   LVHAR        =      F    write LOCPOT, Hartree potential only
   LELF         =      F    write electronic localiz. function (ELF)
   LORBIT       =      0    0 simple, 1 ext, 2 COOP (PROOUT), +10 PAW based schemes


 Dipole corrections
   LMONO  =      F    monopole corrections only (constant potential shift)
   LDIPOL =      F    correct potential (dipole corrections)
   IDIPOL =      0    1-x, 2-y, 3-z, 4-all directions 
   EPSILON=  1.0000000 bulk dielectric constant

 Exchange correlation treatment:
   GGA     =    --    GGA type
   LEXCH   =     8    internal setting for exchange type
   VOSKOWN=      0    Vosko Wilk Nusair interpolation
   LHFCALC =     F    Hartree Fock is set to
   LHFONE  =     F    Hartree Fock one center treatment
   AEXX    =    0.0000 exact exchange contribution

 Linear response parameters
   LEPSILON=     F    determine dielectric tensor
   LRPA    =     F    only Hartree local field effects (RPA)
   LNABLA  =     F    use nabla operator in PAW spheres
   LVEL    =     F    velocity operator in full k-point grid
   LINTERFAST=   F  fast interpolation
   KINTER  =     0    interpolate to denser k-point grid
   CSHIFT  =0.1000    complex shift for real part using Kramers Kronig
   OMEGAMAX=  -1.0    maximum frequency
   DEG_THRESHOLD= 0.2000000E-02 threshold for treating states as degnerate
   RTIME   =   -0.100 relaxation time in fs
  (WPLASMAI=    0.000 imaginary part of plasma frequency in eV, 0.658/RTIME)
   DFIELD  = 0.0000000 0.0000000 0.0000000 field for delta impulse in time

 Orbital magnetization related:
   ORBITALMAG=     F  switch on orbital magnetization
   LCHIMAG   =     F  perturbation theory with respect to B field
   DQ        =  0.001000  dq finite difference perturbation B field
   LLRAUG    =     F  two centre corrections for induced B field



--------------------------------------------------------------------------------------------------------


 Static calculation
 charge density and potential will be updated during run
 non-spin polarized calculation
 Variant of blocked Davidson
 Davidson routine will perform the subspace rotation
 perform sub-space diagonalisation
    after iterative eigenvector-optimisation
 modified Broyden-mixing scheme, WC =      100.0
 initial mixing is a Kerker type mixing with AMIX =  0.4000 and BMIX =      1.0000
 Hartree-type preconditioning will be used
 using additional bands            4
 real space projection scheme for non local part
 use partial core corrections
 calculate Harris-corrections to forces   (improved forces if not selfconsistent)
 use gradient corrections 
 use of overlap-Matrix (Vanderbilt PP)
 Gauss-broadening in eV      SIGMA  =   0.05


--------------------------------------------------------------------------------------------------------


  energy-cutoff  :      400.00
  volume of cell :      489.33
      direct lattice vectors                 reciprocal lattice vectors
     7.954375400  0.000000000  0.000000000     0.125716973  0.003499132  0.003330444
    -0.222516000  7.994565000  0.000000000    -0.000000000  0.125084980  0.001368504
    -0.201505400 -0.084186100  7.694837600     0.000000000 -0.000000000  0.129957259

  length of vectors
     7.954375400  7.997661090  7.697935919     0.125809750  0.125092466  0.129957259



 k-points in units of 2pi/SCALE and weight: read from INCAR                         
   0.00000000  0.00000000  0.00000000       1.000

 k-points in reciprocal lattice and weights: read from INCAR                         
   0.00000000  0.00000000  0.00000000       1.000

 position of ions in fractional coordinates (direct lattice) 
   0.48002074  0.39023715  0.32232574
   0.38508457  0.51454364  0.48917913
   0.58786665  0.57885197  0.42404583
   0.55531079  0.39088426  0.56088698
   0.50371105  0.46686423  0.44396571

 position of ions in cartesian coordinates  (Angst):
   3.66648080  3.09264090  2.48024420
   2.85004080  4.07237050  3.76415400
   4.46186070  4.59197090  3.26296380
   4.21715070  3.07773070  4.31593420
   3.81336050  3.69500070  3.41624400



--------------------------------------------------------------------------------------------------------


 k-point  1 :   0.0000 0.0000 0.0000  plane waves:    8865

 maximum and minimum number of plane-waves per node :      8865     8865

 maximum number of plane-waves:      8865
 maximum index in each direction: 
   IXMAX=   12   IYMAX=   13   IZMAX=   12
   IXMIN=  -12   IYMIN=  -13   IZMIN=  -12


 serial   3D FFT for wavefunctions
 parallel 3D FFT for charge:
    minimum data exchange during FFTs selected (reduces bandwidth)


 total amount of memory used by VASP MPI-rank0   144940. kBytes
=======================================================================

   base      :      30000. kBytes
   nonlr-proj:       1169. kBytes
   fftplans  :      40488. kBytes
   grid      :      72130. kBytes
   one-center:         15. kBytes
   wavefun   :       1138. kBytes

     INWAV:  cpu time    0.0000: real time    0.0000
 Broyden mixing: mesh for mixing (old mesh)
   NGX = 25   NGY = 27   NGZ = 25
  (NGX  =108   NGY  =108   NGZ  =100)
  gives a total of  16875 points

 initial charge density was supplied:
 charge density of overlapping atoms calculated
 number of electron       8.0000000 magnetization 
 keeping initial charge density in first step


--------------------------------------------------------------------------------------------------------


 Maximum index for non-local projection operator         4146
 Maximum index for augmentation-charges         3416 (set IRDMAX)


--------------------------------------------------------------------------------------------------------


 First call to EWALD:  gamma=   0.225
 Maximum number of real-space cells 3x 3x 3
 Maximum number of reciprocal cells 3x 3x 3

    FEWALD:  cpu time    0.0008: real time    0.0008


--------------------------------------- Iteration      1(   1)  ---------------------------------------


    POTLOK:  cpu time    0.8847: real time    0.8870
    SETDIJ:  cpu time    0.0068: real time    0.0068
     EDDAV:  cpu time    0.2605: real time    0.2611
       DOS:  cpu time    0.0001: real time    0.0001
    --------------------------------------------
      LOOP:  cpu time    1.1521: real time    1.1551

 eigenvalue-minimisations  :    16
 total energy-change (2. order) : 0.4596660E+02  (-0.1873052E+03)
 number of electron       8.0000000 magnetization 
 augmentation part        8.0000000 magnetization 

 Free energy of the ion-electron system (eV)
  ---------------------------------------------------
  alpha Z        PSCENC =         0.49506797
  Ewald energy   TEWEN  =        88.92328733
  -Hartree energ DENC   =      -209.06793336
  -exchange      EXHF   =         0.00000000
  -V(xc)+E(xc)   XCENC  =        21.86545479
  PAW double counting   =       117.05815612     -117.66307307
  entropy T*S    EENTRO =        -0.00000000
  eigenvalues    EBANDS =       -52.68610964
  atomic energy  EATOM  =       197.04175453
  Solvation  Ediel_sol  =         0.00000000
  ---------------------------------------------------
  free energy    TOTEN  =        45.96660467 eV

  energy without entropy =       45.96660467  energy(sigma->0) =       45.96660467


--------------------------------------------------------------------------------------------------------




--------------------------------------- Iteration      1(   2)  ---------------------------------------


     EDDAV:  cpu time    0.2396: real time    0.2402
       DOS:  cpu time    0.0001: real time    0.0001
    --------------------------------------------
      LOOP:  cpu time    0.2397: real time    0.2403

 eigenvalue-minimisations  :    16
 total energy-change (2. order) :-0.5848156E+02  (-0.5848156E+02)
 number of electron       8.0000000 magnetization 
 augmentation part        8.0000000 magnetization 

 Free energy of the ion-electron system (eV)
  ---------------------------------------------------
  alpha Z        PSCENC =         0.49506797
  Ewald energy   TEWEN  =        88.92328733
  -Hartree energ DENC   =      -209.06793336
  -exchange      EXHF   =         0.00000000
  -V(xc)+E(xc)   XCENC  =        21.86545479
  PAW double counting   =       117.05815612     -117.66307307
  entropy T*S    EENTRO =        -0.00000000
  eigenvalues    EBANDS =      -111.16766613
  atomic energy  EATOM  =       197.04175453
  Solvation  Ediel_sol  =         0.00000000
  ---------------------------------------------------
  free energy    TOTEN  =       -12.51495182 eV

  energy without entropy =      -12.51495182  energy(sigma->0) =      -12.51495182


--------------------------------------------------------------------------------------------------------




--------------------------------------- Iteration      1(   3)  ---------------------------------------


     EDDAV:  cpu time    0.2299: real time    0.2305
       DOS:  cpu time    0.0001: real time    0.0001
    --------------------------------------------
      LOOP:  cpu time    0.2300: real time    0.2305

 eigenvalue-minimisations  :    16
 total energy-change (2. order) :-0.1382766E+02  (-0.1382766E+02)
 number of electron       8.0000000 magnetization 
 augmentation part        8.0000000 magnetization 

 Free energy of the ion-electron system (eV)
  ---------------------------------------------------
  alpha Z        PSCENC =         0.49506797
  Ewald energy   TEWEN  =        88.92328733
  -Hartree energ DENC   =      -209.06793336
  -exchange      EXHF   =         0.00000000
  -V(xc)+E(xc)   XCENC  =        21.86545479
  PAW double counting   =       117.05815612     -117.66307307
  entropy T*S    EENTRO =        -0.00000000
  eigenvalues    EBANDS =      -124.99532706
  atomic energy  EATOM  =       197.04175453
  Solvation  Ediel_sol  =         0.00000000
  ---------------------------------------------------
  free energy    TOTEN  =       -26.34261275 eV

  energy without entropy =      -26.34261275  energy(sigma->0) =      -26.34261275


--------------------------------------------------------------------------------------------------------




--------------------------------------- Iteration      1(   4)  ---------------------------------------


     EDDAV:  cpu time    0.4105: real time    0.4115
       DOS:  cpu time    0.0001: real time    0.0001
    --------------------------------------------
      LOOP:  cpu time    0.4106: real time    0.4115

 eigenvalue-minimisations  :    32
 total energy-change (2. order) :-0.7531844E+00  (-0.7531844E+00)
 number of electron       8.0000000 magnetization 
 augmentation part        8.0000000 magnetization 

 Free energy of the ion-electron system (eV)
  ---------------------------------------------------
  alpha Z        PSCENC =         0.49506797
  Ewald energy   TEWEN  =        88.92328733
  -Hartree energ DENC   =      -209.06793336
  -exchange      EXHF   =         0.00000000
  -V(xc)+E(xc)   XCENC  =        21.86545479
  PAW double counting   =       117.05815612     -117.66307307
  entropy T*S    EENTRO =        -0.00000000
  eigenvalues    EBANDS =      -125.74851142
  atomic energy  EATOM  =       197.04175453
  Solvation  Ediel_sol  =         0.00000000
  ---------------------------------------------------
  free energy    TOTEN  =       -27.09579711 eV

  energy without entropy =      -27.09579711  energy(sigma->0) =      -27.09579711


--------------------------------------------------------------------------------------------------------




--------------------------------------- Iteration      1(   5)  ---------------------------------------


     EDDAV:  cpu time    0.4060: real time    0.4070
       DOS:  cpu time    0.0001: real time    0.0001
    CHARGE:  cpu time    0.0521: real time    0.0523
    MIXING:  cpu time    0.0176: real time    0.0176
    --------------------------------------------
      LOOP:  cpu time    0.4759: real time    0.4770

 eigenvalue-minimisations  :    32
 total energy-change (2. order) :-0.4228661E-03  (-0.4228669E-03)
 number of electron       7.9999998 magnetization 
 augmentation part        0.2159228 magnetization 

 Broyden mixing:
  rms(total) = 0.82625E+00    rms(broyden)= 0.82606E+00
  rms(prec ) = 0.13462E+01
  weight for this iteration     100.00

 Free energy of the ion-electron system (eV)
  ---------------------------------------------------
  alpha Z        PSCENC =         0.49506797
  Ewald energy   TEWEN  =        88.92328733
  -Hartree energ DENC   =      -209.06793336
  -exchange      EXHF   =         0.00000000
  -V(xc)+E(xc)   XCENC  =        21.86545479
  PAW double counting   =       117.05815612     -117.66307307
  entropy T*S    EENTRO =        -0.00000000
  eigenvalues    EBANDS =      -125.74893429
  atomic energy  EATOM  =       197.04175453
  Solvation  Ediel_sol  =         0.00000000
  ---------------------------------------------------
  free energy    TOTEN  =       -27.09621997 eV

  energy without entropy =      -27.09621997  energy(sigma->0) =      -27.09621997


--------------------------------------------------------------------------------------------------------




--------------------------------------- Iteration      1(   6)  ---------------------------------------


    POTLOK:  cpu time    0.8526: real time    0.8546
    SETDIJ:  cpu time    0.0063: real time    0.0063
     EDDAV:  cpu time    0.3047: real time    0.3054
       DOS:  cpu time    0.0001: real time    0.0001
    CHARGE:  cpu time    0.0376: real time    0.0376
    MIXING:  cpu time    0.0160: real time    0.0160
    --------------------------------------------
      LOOP:  cpu time    1.2172: real time    1.2201

 eigenvalue-minimisations  :    24
 total energy-change (2. order) : 0.2603577E+01  (-0.8289351E+00)
 number of electron       7.9999998 magnetization 
 augmentation part        0.1892148 magnetization 

 Broyden mixing:
  rms(total) = 0.42470E+00    rms(broyden)= 0.42460E+00
  rms(prec ) = 0.58999E+00
  weight for this iteration     100.00

 eigenvalues of (default mixing * dielectric matrix)
  average eigenvalue GAMMA=   1.1834
  1.1834

 Free energy of the ion-electron system (eV)
  ---------------------------------------------------
  alpha Z        PSCENC =         0.49506797
  Ewald energy   TEWEN  =        88.92328733
  -Hartree energ DENC   =      -227.77031870
  -exchange      EXHF   =         0.00000000
  -V(xc)+E(xc)   XCENC  =        23.00380311
  PAW double counting   =       230.03518016     -230.80106181
  entropy T*S    EENTRO =        -0.00000000
  eigenvalues    EBANDS =      -105.42035508
  atomic energy  EATOM  =       197.04175453
  Solvation  Ediel_sol  =         0.00000000
  ---------------------------------------------------
  free energy    TOTEN  =       -24.49264249 eV

  energy without entropy =      -24.49264249  energy(sigma->0) =      -24.49264249


--------------------------------------------------------------------------------------------------------




--------------------------------------- Iteration      1(   7)  ---------------------------------------


    POTLOK:  cpu time    0.7946: real time    0.7965
    SETDIJ:  cpu time    0.0070: real time    0.0070
     EDDAV:  cpu time    0.4119: real time    0.4129
       DOS:  cpu time    0.0001: real time    0.0001
    CHARGE:  cpu time    0.0454: real time    0.0455
    MIXING:  cpu time    0.0189: real time    0.0190
    --------------------------------------------
      LOOP:  cpu time    1.2780: real time    1.2810

 eigenvalue-minimisations  :    32
 total energy-change (2. order) : 0.4353663E+00  (-0.6127409E-01)
 number of electron       7.9999998 magnetization 
 augmentation part        0.1816599 magnetization 

 Broyden mixing:
  rms(total) = 0.21605E+00    rms(broyden)= 0.21602E+00
  rms(prec ) = 0.29483E+00
  weight for this iteration     100.00

 eigenvalues of (default mixing * dielectric matrix)
  average eigenvalue GAMMA=   1.6933
  1.2293  2.1572

 Free energy of the ion-electron system (eV)
  ---------------------------------------------------
  alpha Z        PSCENC =         0.49506797
  Ewald energy   TEWEN  =        88.92328733
  -Hartree energ DENC   =      -237.05324720
  -exchange      EXHF   =         0.00000000
  -V(xc)+E(xc)   XCENC  =        23.71871024
  PAW double counting   =       344.21010043     -344.99791564
  entropy T*S    EENTRO =        -0.00000000
  eigenvalues    EBANDS =       -96.39503389
  atomic energy  EATOM  =       197.04175453
  Solvation  Ediel_sol  =         0.00000000
  ---------------------------------------------------
  free energy    TOTEN  =       -24.05727624 eV

  energy without entropy =      -24.05727624  energy(sigma->0) =      -24.05727624


--------------------------------------------------------------------------------------------------------




--------------------------------------- Iteration      1(   8)  ---------------------------------------


    POTLOK:  cpu time    0.8136: real time    0.8155
    SETDIJ:  cpu time    0.0067: real time    0.0067
     EDDAV:  cpu time    0.3890: real time    0.3899
       DOS:  cpu time    0.0001: real time    0.0001
    CHARGE:  cpu time    0.0427: real time    0.0428
    MIXING:  cpu time    0.0169: real time    0.0170
    --------------------------------------------
      LOOP:  cpu time    1.2689: real time    1.2719

 eigenvalue-minimisations  :    32
 total energy-change (2. order) : 0.1562674E+00  (-0.1719648E-01)
 number of electron       7.9999998 magnetization 
 augmentation part        0.1791595 magnetization 

 Broyden mixing:
  rms(total) = 0.27616E-01    rms(broyden)= 0.27592E-01
  rms(prec ) = 0.62543E-01
  weight for this iteration     100.00

 eigenvalues of (default mixing * dielectric matrix)
  average eigenvalue GAMMA=   1.5634
  2.1566  1.1191  1.4146

 Free energy of the ion-electron system (eV)
  ---------------------------------------------------
  alpha Z        PSCENC =         0.49506797
  Ewald energy   TEWEN  =        88.92328733
  -Hartree energ DENC   =      -243.83925201
  -exchange      EXHF   =         0.00000000
  -V(xc)+E(xc)   XCENC  =        24.33559285
  PAW double counting   =       446.58263580     -447.35534600
  entropy T*S    EENTRO =        -0.00000000
  eigenvalues    EBANDS =       -90.08474931
  atomic energy  EATOM  =       197.04175453
  Solvation  Ediel_sol  =         0.00000000
  ---------------------------------------------------
  free energy    TOTEN  =       -23.90100885 eV

  energy without entropy =      -23.90100885  energy(sigma->0) =      -23.90100885


--------------------------------------------------------------------------------------------------------




--------------------------------------- Iteration      1(   9)  ---------------------------------------


    POTLOK:  cpu time    0.7986: real time    0.8005
    SETDIJ:  cpu time    0.0068: real time    0.0068
     EDDAV:  cpu time    0.2288: real time    0.2293
       DOS:  cpu time    0.0001: real time    0.0001
    CHARGE:  cpu time    0.0431: real time    0.0432
    MIXING:  cpu time    0.0168: real time    0.0168
    --------------------------------------------
      LOOP:  cpu time    1.0941: real time    1.0967

 eigenvalue-minimisations  :    16
 total energy-change (2. order) : 0.2657779E-02  (-0.3588403E-03)
 number of electron       7.9999998 magnetization 
 augmentation part        0.1786964 magnetization 

 Broyden mixing:
  rms(total) = 0.13908E-01    rms(broyden)= 0.13904E-01
  rms(prec ) = 0.36475E-01
  weight for this iteration     100.00

 eigenvalues of (default mixing * dielectric matrix)
  average eigenvalue GAMMA=   1.8774
  2.8491  2.4803  1.0004  1.1796

 Free energy of the ion-electron system (eV)
  ---------------------------------------------------
  alpha Z        PSCENC =         0.49506797
  Ewald energy   TEWEN  =        88.92328733
  -Hartree energ DENC   =      -245.12409992
  -exchange      EXHF   =         0.00000000
  -V(xc)+E(xc)   XCENC  =        24.40336355
  PAW double counting   =       440.89791645     -441.66796460
  entropy T*S    EENTRO =        -0.00000000
  eigenvalues    EBANDS =       -88.86767638
  atomic energy  EATOM  =       197.04175453
  Solvation  Ediel_sol  =         0.00000000
  ---------------------------------------------------
  free energy    TOTEN  =       -23.89835107 eV

  energy without entropy =      -23.89835107  energy(sigma->0) =      -23.89835107


--------------------------------------------------------------------------------------------------------




--------------------------------------- Iteration      1(  10)  ---------------------------------------


    POTLOK:  cpu time    0.7596: real time    0.7614
    SETDIJ:  cpu time    0.0062: real time    0.0062
     EDDAV:  cpu time    0.4018: real time    0.4027
       DOS:  cpu time    0.0001: real time    0.0001
    CHARGE:  cpu time    0.0482: real time    0.0483
    MIXING:  cpu time    0.0203: real time    0.0203
    --------------------------------------------
      LOOP:  cpu time    1.2362: real time    1.2391

 eigenvalue-minimisations  :    32
 total energy-change (2. order) :-0.4487733E-03  (-0.2366540E-03)
 number of electron       7.9999998 magnetization 
 augmentation part        0.1784047 magnetization 

 Broyden mixing:
  rms(total) = 0.59652E-02    rms(broyden)= 0.59639E-02
  rms(prec ) = 0.14465E-01
  weight for this iteration     100.00

 eigenvalues of (default mixing * dielectric matrix)
  average eigenvalue GAMMA=   2.0133
  3.4060  1.0169  1.1918  2.2260  2.2260

 Free energy of the ion-electron system (eV)
  ---------------------------------------------------
  alpha Z        PSCENC =         0.49506797
  Ewald energy   TEWEN  =        88.92328733
  -Hartree energ DENC   =      -246.36493757
  -exchange      EXHF   =         0.00000000
  -V(xc)+E(xc)   XCENC  =        24.46091422
  PAW double counting   =       432.45147985     -433.21824611
  entropy T*S    EENTRO =        -0.00000000
  eigenvalues    EBANDS =       -87.68812007
  atomic energy  EATOM  =       197.04175453
  Solvation  Ediel_sol  =         0.00000000
  ---------------------------------------------------
  free energy    TOTEN  =       -23.89879984 eV

  energy without entropy =      -23.89879984  energy(sigma->0) =      -23.89879984


--------------------------------------------------------------------------------------------------------




--------------------------------------- Iteration      1(  11)  ---------------------------------------


    POTLOK:  cpu time    0.7829: real time    0.7848
    SETDIJ:  cpu time    0.0071: real time    0.0071
     EDDAV:  cpu time    0.4118: real time    0.4128
       DOS:  cpu time    0.0001: real time    0.0001
    CHARGE:  cpu time    0.0464: real time    0.0465
    MIXING:  cpu time    0.0191: real time    0.0191
    --------------------------------------------
      LOOP:  cpu time    1.2673: real time    1.2704

 eigenvalue-minimisations  :    32
 total energy-change (2. order) :-0.5382680E-02  (-0.8771292E-04)
 number of electron       7.9999998 magnetization 
 augmentation part        0.1783087 magnetization 

 Broyden mixing:
  rms(total) = 0.28168E-02    rms(broyden)= 0.28160E-02
  rms(prec ) = 0.59403E-02
  weight for this iteration     100.00

 eigenvalues of (default mixing * dielectric matrix)
  average eigenvalue GAMMA=   2.0795
  4.0987  2.8030  2.2671  1.1831  1.0522  1.0729

 Free energy of the ion-electron system (eV)
  ---------------------------------------------------
  alpha Z        PSCENC =         0.49506797
  Ewald energy   TEWEN  =        88.92328733
  -Hartree energ DENC   =      -246.79321081
  -exchange      EXHF   =         0.00000000
  -V(xc)+E(xc)   XCENC  =        24.47509064
  PAW double counting   =       433.19189549     -433.95905497
  entropy T*S    EENTRO =        -0.00000000
  eigenvalues    EBANDS =       -87.27901271
  atomic energy  EATOM  =       197.04175453
  Solvation  Ediel_sol  =         0.00000000
  ---------------------------------------------------
  free energy    TOTEN  =       -23.90418252 eV

  energy without entropy =      -23.90418252  energy(sigma->0) =      -23.90418252


--------------------------------------------------------------------------------------------------------




--------------------------------------- Iteration      1(  12)  ---------------------------------------


    POTLOK:  cpu time    0.7600: real time    0.7618
    SETDIJ:  cpu time    0.0064: real time    0.0064
     EDDAV:  cpu time    0.2360: real time    0.2365
       DOS:  cpu time    0.0001: real time    0.0001
    CHARGE:  cpu time    0.0408: real time    0.0409
    MIXING:  cpu time    0.0193: real time    0.0193
    --------------------------------------------
      LOOP:  cpu time    1.0625: real time    1.0650

 eigenvalue-minimisations  :    16
 total energy-change (2. order) :-0.2033377E-02  (-0.1639805E-04)
 number of electron       7.9999998 magnetization 
 augmentation part        0.1783155 magnetization 

 Broyden mixing:
  rms(total) = 0.14425E-02    rms(broyden)= 0.14425E-02
  rms(prec ) = 0.30509E-02
  weight for this iteration     100.00

 eigenvalues of (default mixing * dielectric matrix)
  average eigenvalue GAMMA=   2.2392
  5.0277  2.8650  2.4045  2.1027  1.1767  1.0831  1.0149

 Free energy of the ion-electron system (eV)
  ---------------------------------------------------
  alpha Z        PSCENC =         0.49506797
  Ewald energy   TEWEN  =        88.92328733
  -Hartree energ DENC   =      -246.70372958
  -exchange      EXHF   =         0.00000000
  -V(xc)+E(xc)   XCENC  =        24.46327937
  PAW double counting   =       432.21414172     -432.98164830
  entropy T*S    EENTRO =        -0.00000000
  eigenvalues    EBANDS =       -87.35836893
  atomic energy  EATOM  =       197.04175453
  Solvation  Ediel_sol  =         0.00000000
  ---------------------------------------------------
  free energy    TOTEN  =       -23.90621590 eV

  energy without entropy =      -23.90621590  energy(sigma->0) =      -23.90621590


--------------------------------------------------------------------------------------------------------




--------------------------------------- Iteration      1(  13)  ---------------------------------------


    POTLOK:  cpu time    0.7526: real time    0.7544
    SETDIJ:  cpu time    0.0062: real time    0.0062
     EDDAV:  cpu time    0.4007: real time    0.4016
       DOS:  cpu time    0.0001: real time    0.0001
    CHARGE:  cpu time    0.0455: real time    0.0456
    MIXING:  cpu time    0.0247: real time    0.0248
    --------------------------------------------
      LOOP:  cpu time    1.2298: real time    1.2327

 eigenvalue-minimisations  :    32
 total energy-change (2. order) :-0.1322740E-02  (-0.1270638E-04)
 number of electron       7.9999998 magnetization 
 augmentation part        0.1782888 magnetization 

 Broyden mixing:
  rms(total) = 0.50255E-03    rms(broyden)= 0.50229E-03
  rms(prec ) = 0.11312E-02
  weight for this iteration     100.00

 eigenvalues of (default mixing * dielectric matrix)
  average eigenvalue GAMMA=   2.2644
  5.3272  3.4919  2.1431  2.1431  1.7386  1.1910  1.0402  1.0402

 Free energy of the ion-electron system (eV)
  ---------------------------------------------------
  alpha Z        PSCENC =         0.49506797
  Ewald energy   TEWEN  =        88.92328733
  -Hartree energ DENC   =      -246.73970491
  -exchange      EXHF   =         0.00000000
  -V(xc)+E(xc)   XCENC  =        24.46398530
  PAW double counting   =       432.88589491     -433.65316721
  entropy T*S    EENTRO =        -0.00000000
  eigenvalues    EBANDS =       -87.32465656
  atomic energy  EATOM  =       197.04175453
  Solvation  Ediel_sol  =         0.00000000
  ---------------------------------------------------
  free energy    TOTEN  =       -23.90753864 eV

  energy without entropy =      -23.90753864  energy(sigma->0) =      -23.90753864


--------------------------------------------------------------------------------------------------------




--------------------------------------- Iteration      1(  14)  ---------------------------------------


    POTLOK:  cpu time    0.7448: real time    0.7466
    SETDIJ:  cpu time    0.0069: real time    0.0069
     EDDAV:  cpu time    0.4011: real time    0.4021
       DOS:  cpu time    0.0001: real time    0.0001
    CHARGE:  cpu time    0.0454: real time    0.0455
    MIXING:  cpu time    0.0206: real time    0.0206
    --------------------------------------------
      LOOP:  cpu time    1.2189: real time    1.2218

 eigenvalue-minimisations  :    32
 total energy-change (2. order) :-0.3601998E-03  (-0.2824633E-05)
 number of electron       7.9999998 magnetization 
 augmentation part        0.1783029 magnetization 

 Broyden mixing:
  rms(total) = 0.25626E-03    rms(broyden)= 0.25622E-03
  rms(prec ) = 0.51528E-03
  weight for this iteration     100.00

 eigenvalues of (default mixing * dielectric matrix)
  average eigenvalue GAMMA=   2.3686
  5.8542  4.0999  2.7627  2.3500  1.8409  1.0057  1.0057  1.1990  1.1990

 Free energy of the ion-electron system (eV)
  ---------------------------------------------------
  alpha Z        PSCENC =         0.49506797
  Ewald energy   TEWEN  =        88.92328733
  -Hartree energ DENC   =      -246.71523342
  -exchange      EXHF   =         0.00000000
  -V(xc)+E(xc)   XCENC  =        24.46208802
  PAW double counting   =       432.83621374     -433.60341374
  entropy T*S    EENTRO =        -0.00000000
  eigenvalues    EBANDS =       -87.34766328
  atomic energy  EATOM  =       197.04175453
  Solvation  Ediel_sol  =         0.00000000
  ---------------------------------------------------
  free energy    TOTEN  =       -23.90789884 eV

  energy without entropy =      -23.90789884  energy(sigma->0) =      -23.90789884


--------------------------------------------------------------------------------------------------------




--------------------------------------- Iteration      1(  15)  ---------------------------------------


    POTLOK:  cpu time    0.7959: real time    0.7978
    SETDIJ:  cpu time    0.0069: real time    0.0069
     EDDAV:  cpu time    0.4078: real time    0.4088
       DOS:  cpu time    0.0001: real time    0.0001
    CHARGE:  cpu time    0.0478: real time    0.0479
    MIXING:  cpu time    0.0201: real time    0.0201
    --------------------------------------------
      LOOP:  cpu time    1.2787: real time    1.2817

 eigenvalue-minimisations  :    32
 total energy-change (2. order) :-0.1294617E-03  (-0.1219098E-05)
 number of electron       7.9999998 magnetization 
 augmentation part        0.1782919 magnetization 

 Broyden mixing:
  rms(total) = 0.95298E-04    rms(broyden)= 0.95288E-04
  rms(prec ) = 0.15140E-03
  weight for this iteration     100.00

 eigenvalues of (default mixing * dielectric matrix)
  average eigenvalue GAMMA=   2.3127
  6.0208  4.1346  2.8063  2.3743  1.8278  1.6929  1.1715  0.9742  1.0462  1.0784

 Free energy of the ion-electron system (eV)
  ---------------------------------------------------
  alpha Z        PSCENC =         0.49506797
  Ewald energy   TEWEN  =        88.92328733
  -Hartree energ DENC   =      -246.72410309
  -exchange      EXHF   =         0.00000000
  -V(xc)+E(xc)   XCENC  =        24.46266480
  PAW double counting   =       432.85519601     -433.62239509
  entropy T*S    EENTRO =        -0.00000000
  eigenvalues    EBANDS =       -87.33950076
  atomic energy  EATOM  =       197.04175453
  Solvation  Ediel_sol  =         0.00000000
  ---------------------------------------------------
  free energy    TOTEN  =       -23.90802830 eV

  energy without entropy =      -23.90802830  energy(sigma->0) =      -23.90802830


--------------------------------------------------------------------------------------------------------




--------------------------------------- Iteration      1(  16)  ---------------------------------------


    POTLOK:  cpu time    0.8505: real time    0.8525
    SETDIJ:  cpu time    0.0070: real time    0.0070
     EDDAV:  cpu time    0.3201: real time    0.3208
       DOS:  cpu time    0.0001: real time    0.0001
    CHARGE:  cpu time    0.0460: real time    0.0462
    MIXING:  cpu time    0.0222: real time    0.0223
    --------------------------------------------
      LOOP:  cpu time    1.2459: real time    1.2489

 eigenvalue-minimisations  :    24
 total energy-change (2. order) :-0.1475040E-04  (-0.5157478E-07)
 number of electron       7.9999998 magnetization 
 augmentation part        0.1782919 magnetization 

 Broyden mixing:
  rms(total) = 0.42263E-04    rms(broyden)= 0.42255E-04
  rms(prec ) = 0.75482E-04
  weight for this iteration     100.00

 eigenvalues of (default mixing * dielectric matrix)
  average eigenvalue GAMMA=   2.3240
  6.0656  4.3629  3.0133  2.6077  2.3683  1.8257  1.1951  1.1951  0.9963  0.9963
  0.9372

 Free energy of the ion-electron system (eV)
  ---------------------------------------------------
  alpha Z        PSCENC =         0.49506797
  Ewald energy   TEWEN  =        88.92328733
  -Hartree energ DENC   =      -246.72372245
  -exchange      EXHF   =         0.00000000
  -V(xc)+E(xc)   XCENC  =        24.46261569
  PAW double counting   =       432.81608865     -433.58330509
  entropy T*S    EENTRO =        -0.00000000
  eigenvalues    EBANDS =       -87.33982968
  atomic energy  EATOM  =       197.04175453
  Solvation  Ediel_sol  =         0.00000000
  ---------------------------------------------------
  free energy    TOTEN  =       -23.90804305 eV

  energy without entropy =      -23.90804305  energy(sigma->0) =      -23.90804305


--------------------------------------------------------------------------------------------------------




--------------------------------------- Iteration      1(  17)  ---------------------------------------


    POTLOK:  cpu time    0.7609: real time    0.7627
    SETDIJ:  cpu time    0.0062: real time    0.0063
     EDDAV:  cpu time    0.3986: real time    0.3995
       DOS:  cpu time    0.0001: real time    0.0001
    CHARGE:  cpu time    0.0472: real time    0.0473
    MIXING:  cpu time    0.0224: real time    0.0224
    --------------------------------------------
      LOOP:  cpu time    1.2354: real time    1.2383

 eigenvalue-minimisations  :    32
 total energy-change (2. order) :-0.6276454E-05  (-0.3408074E-07)
 number of electron       7.9999998 magnetization 
 augmentation part        0.1782928 magnetization 

 Broyden mixing:
  rms(total) = 0.24063E-04    rms(broyden)= 0.24058E-04
  rms(prec ) = 0.39184E-04
  weight for this iteration     100.00

 eigenvalues of (default mixing * dielectric matrix)
  average eigenvalue GAMMA=   2.3235
  6.1384  4.4342  3.3396  2.5716  2.4011  1.8365  1.8365  1.1641  1.1641  0.9782
  1.0090  1.0090

 Free energy of the ion-electron system (eV)
  ---------------------------------------------------
  alpha Z        PSCENC =         0.49506797
  Ewald energy   TEWEN  =        88.92328733
  -Hartree energ DENC   =      -246.72413863
  -exchange      EXHF   =         0.00000000
  -V(xc)+E(xc)   XCENC  =        24.46267348
  PAW double counting   =       432.81713321     -433.58434694
  entropy T*S    EENTRO =        -0.00000000
  eigenvalues    EBANDS =       -87.33948027
  atomic energy  EATOM  =       197.04175453
  Solvation  Ediel_sol  =         0.00000000
  ---------------------------------------------------
  free energy    TOTEN  =       -23.90804933 eV

  energy without entropy =      -23.90804933  energy(sigma->0) =      -23.90804933


--------------------------------------------------------------------------------------------------------




--------------------------------------- Iteration      1(  18)  ---------------------------------------


    POTLOK:  cpu time    0.8177: real time    0.8197
    SETDIJ:  cpu time    0.0062: real time    0.0062
     EDDAV:  cpu time    0.2099: real time    0.2104
       DOS:  cpu time    0.0001: real time    0.0001
    --------------------------------------------
      LOOP:  cpu time    1.0339: real time    1.0363

 eigenvalue-minimisations  :    16
 total energy-change (2. order) :-0.9416498E-06  (-0.5411582E-08)
 number of electron       7.9999998 magnetization 
 augmentation part        0.1782928 magnetization 

 Free energy of the ion-electron system (eV)
  ---------------------------------------------------
  alpha Z        PSCENC =         0.49506797
  Ewald energy   TEWEN  =        88.92328733
  -Hartree energ DENC   =      -246.72426530
  -exchange      EXHF   =         0.00000000
  -V(xc)+E(xc)   XCENC  =        24.46265930
  PAW double counting   =       432.82139364     -433.58861020
  entropy T*S    EENTRO =        -0.00000000
  eigenvalues    EBANDS =       -87.33933755
  atomic energy  EATOM  =       197.04175453
  Solvation  Ediel_sol  =         0.00000000
  ---------------------------------------------------
  free energy    TOTEN  =       -23.90805027 eV

  energy without entropy =      -23.90805027  energy(sigma->0) =      -23.90805027


--------------------------------------------------------------------------------------------------------




 average (electrostatic) potential at core
  the test charge radii are     0.5201  0.6991
  (the norm of the test charge is              1.0000)
       1 -41.2814       2 -41.3719       3 -41.2459       4 -40.9525       5 -57.9859



 E-fermi :  -8.5541     XC(G=0):  -1.3330     alpha+bet : -0.4305


 k-point     1 :       0.0000    0.0000    0.0000
  band No.  band energies     occupation 
      1     -16.5637      2.00000
      2      -9.2715      2.00000
      3      -9.0381      2.00000
      4      -8.7963      2.00000
      5      -0.7054      0.00000
      6       1.4526      0.00000
      7       1.6138      0.00000
      8       1.7274      0.00000


--------------------------------------------------------------------------------------------------------


 soft charge-density along one line, spin component           1
         0         1         2         3         4         5         6         7         8         9
 total charge-density along one line

 pseudopotential strength for first ion, spin component:           1
 -2.339  -4.030  -0.001  -0.001  -0.000
 -4.030  -6.858  -0.003  -0.004  -0.001
 -0.001  -0.003  -0.339   0.002   0.000
 -0.001  -0.004   0.002  -0.337   0.000
 -0.000  -0.001   0.000   0.000  -0.340
 total augmentation occupancy for first ion, spin component:           1
  3.443  -0.623   0.216   0.337   0.054
 -0.623   0.125  -0.040  -0.062  -0.010
  0.216  -0.040   0.019   0.018   0.003
  0.337  -0.062   0.018   0.035   0.004
  0.054  -0.010   0.003   0.004   0.009


------------------------ aborting loop because EDIFF is reached ----------------------------------------


    CHARGE:  cpu time    0.0409: real time    0.0410
    FORLOC:  cpu time    0.0504: real time    0.0505
    FORNL :  cpu time    0.0798: real time    0.0800
    STRESS:  cpu time    0.2901: real time    0.2908
    FORCOR:  cpu time    0.7563: real time    0.7581
    FORHAR:  cpu time    0.2518: real time    0.2524
    MIXING:  cpu time    0.0224: real time    0.0225
    OFIELD:  cpu time    0.0000: real time    0.0000

  FORCE on cell =-STRESS in cart. coord.  units (eV):
  Direction    XX          YY          ZZ          XY          YZ          ZX
  --------------------------------------------------------------------------------------
  Alpha Z     0.49507     0.49507     0.49507
  Ewald      24.62895    27.07356    37.22073     2.00895     2.45821    -0.59396
  Hartree    79.32562    79.99353    87.40457     0.17201     0.00189    -0.11393
  E(xc)     -26.93628   -26.90867   -26.88017     0.01368     0.00589     0.00918
  Local    -163.50482  -166.45350  -183.65426    -1.75741    -1.66684     0.38262
  n-local   -15.41764   -15.24615   -15.16191     0.03202    -0.04587     0.09596
  augment     0.12677     0.12797     0.12709    -0.00220    -0.00604     0.00354
  Kinetic   100.92225    99.29356    97.90645    -0.72025    -0.34863    -0.50426
  Fock        0.00000     0.00000     0.00000     0.00000     0.00000     0.00000
  -------------------------------------------------------------------------------------
  Total      -0.36009    -1.62464    -2.54243    -0.25320     0.39862    -0.72086
  in kB      -1.17901    -5.31946    -8.32453    -0.82903     1.30517    -2.36028
  external pressure =       -4.94 kB  Pullay stress =        0.00 kB


 VOLUME and BASIS-vectors are now :
 -----------------------------------------------------------------------------
  energy-cutoff  :      400.00
  volume of cell :      489.33
      direct lattice vectors                 reciprocal lattice vectors
     7.954375400  0.000000000  0.000000000     0.125716973  0.003499132  0.003330444
    -0.222516000  7.994565000  0.000000000    -0.000000000  0.125084980  0.001368504
    -0.201505400 -0.084186100  7.694837600     0.000000000 -0.000000000  0.129957259

  length of vectors
     7.954375400  7.997661090  7.697935919     0.125809750  0.125092466  0.129957259


 FORCES acting on ions
    electron-ion (+dipol)            ewald-force                    non-local-force                 convergence-correction
 -----------------------------------------------------------------------------------------------
   0.639E+01 0.273E+02 0.421E+02   -.679E+01 -.296E+02 -.456E+02   0.717E+00 0.276E+01 0.432E+01   0.538E-05 0.238E-04 0.629E-04
   0.462E+02 -.180E+02 -.164E+02   -.514E+02 0.200E+02 0.181E+02   0.490E+01 -.193E+01 -.183E+01   0.461E-04 -.191E-04 -.260E-04
   -.299E+02 -.407E+02 0.731E+01   0.327E+02 0.443E+02 -.808E+01   -.300E+01 -.422E+01 0.672E+00   -.304E-04 -.381E-04 0.801E-05
   -.173E+02 0.263E+02 -.375E+02   0.185E+02 -.280E+02 0.395E+02   -.156E+01 0.240E+01 -.362E+01   -.198E-04 0.205E-04 -.588E-04
   -.632E+01 0.601E+01 0.380E+01   0.704E+01 -.660E+01 -.382E+01   -.115E+00 0.104E+00 0.106E+01   0.101E-05 -.285E-04 -.232E-04
 -----------------------------------------------------------------------------------------------
   -.946E+00 0.891E+00 -.602E+00   -.355E-14 0.000E+00 0.355E-14   0.946E+00 -.891E+00 0.602E+00   0.225E-05 -.414E-04 -.371E-04


 POSITION                                       TOTAL-FORCE (eV/Angst)
 -----------------------------------------------------------------------------------
      3.66648      3.09264      2.48024         0.313060      0.393650      0.786223
      2.85004      4.07237      3.76415        -0.344499      0.053402     -0.109281
      4.46186      4.59197      3.26296        -0.192723     -0.674578     -0.092790
      4.21715      3.07773      4.31593        -0.378479      0.719509     -1.619729
      3.81336      3.69500      3.41624         0.602641     -0.491984      1.035577
 -----------------------------------------------------------------------------------
    total drift:                               -0.000548     -0.000419      0.000184


--------------------------------------------------------------------------------------------------------



  FREE ENERGIE OF THE ION-ELECTRON SYSTEM (eV)
  ---------------------------------------------------
  free  energy   TOTEN  =       -23.90805027 eV

  energy  without entropy=      -23.90805027  energy(sigma->0) =      -23.90805027



--------------------------------------------------------------------------------------------------------


    POTLOK:  cpu time    0.7819: real time    0.7837


--------------------------------------------------------------------------------------------------------


     LOOP+:  cpu time   20.4598: real time   20.5345
    4ORBIT:  cpu time    0.0000: real time    0.0000

 total amount of memory used by VASP MPI-rank0   144940. kBytes
=======================================================================

   base      :      30000. kBytes
   nonlr-proj:       1169. kBytes
   fftplans  :      40488. kBytes
   grid      :      72130. kBytes
   one-center:         15. kBytes
   wavefun   :       1138. kBytes

  
  
 General timing and accounting informations for this job:
 ========================================================
  
                  Total CPU time used (sec):       21.424
                            User time (sec):       21.034
                          System time (sec):        0.390
                         Elapsed time (sec):       21.513
  
                   Maximum memory used (kb):      195980.
                   Average memory used (kb):           0.
  
                          Minor page faults:       132016
                          Major page faults:            0
                 Voluntary context switches:          135
