1.051700000000000017e+02 6.370989999999999753e+01 3.089339999999999975e+00 1.051940000000000026e+02 6.469249999999999545e+01 1.842140000000000111e+00 1.077060000000000031e+02 6.619310000000000116e+01 4.303810000000000358e+00 1.065210000000000008e+02 6.673109999999999786e+01 3.331109999999999793e+00 1.079860000000000042e+02 6.636499999999999488e+01 2.566100000000000048e+00 1.078840000000000003e+02 6.779670000000000130e+01 3.733319999999999972e+00 1.045292139999999961e+02 6.382988100000000031e+01 2.215786000000000033e+00 1.075690000000000026e+02 6.680559999999999832e+01 3.450050000000000061e+00
