-1.765590622179937785e+00 -8.874617865803443584e-01 -8.293861663711891152e-01 -1.189300940869379097e+00 -3.689552367591353854e-01 -8.474568064795845457e-01 7.796892064145588552e-01 -9.550735777809166160e-01 8.941718007432625237e-01 -1.492779790624031433e+00 5.572852678788606795e-01 -3.744969415489915465e-01 7.836258227902089812e-01 5.977177710486185347e-02 -3.981407567525387381e-01 1.747726544516594593e-01 4.811429156384381400e-01 -4.554466400336408816e-01 2.952926777273114034e+00 1.254539295123514142e+00 1.678855066929054729e+00 -2.433431072561930419e-01 -1.412486546252784692e-01 3.319004435136274078e-01
