8.080899999999999750e+00 6.889409999999999457e+01 4.345309999999999917e+01 9.326230000000000686e+00 6.886639999999999873e+01 4.225540000000000163e+01 9.413090000000000401e+00 7.011279999999999291e+01 4.357869999999999777e+01 7.788579999999999615e+00 7.017159999999999798e+01 4.237319999999999709e+01 8.312030000000000030e+00 6.757229999999999848e+01 4.570929999999999893e+01 9.117570000000000618e+00 6.588179999999999836e+01 4.545259999999999678e+01 9.975580000000000780e+00 6.754139999999999588e+01 4.513960000000000150e+01 8.697810000000000485e+00 6.716039999999999566e+01 4.417399999999999949e+01 8.627319999999999212e+00 6.957200000000000273e+01 4.283720000000000283e+01 9.097459999999999880e+00 6.697560000000000002e+01 4.525289999999999679e+01 1.122059999999999924e+01 6.613660000000000139e+01 4.842900000000000205e+01 1.156029999999999980e+01 6.529110000000000014e+01 4.787180000000000035e+01
