-4.045411586471820975e-01 -5.844211042626576980e-01 8.321777161482764029e-01 -1.439557230877089422e+00 1.441349649883111539e+00 -1.218572387137535212e-01 -2.234166087371296960e+00 -5.704740511672562464e-01 -1.800412052190814016e+00 1.766318038746457875e+00 -2.108210149925207888e-01 -1.483375465813623340e-01 1.634922983535128105e-01 -3.137757588123142316e-01 1.180777476074840626e+00 2.233024877427794430e-01 1.029481669373632613e+00 1.668669229537141641e-01 1.729605253671735010e+00 2.770895589464766329e-01 8.011920124166618251e-01 5.950825957787267972e-01 -1.204095943857465212e+00 1.248025918946625179e+00 2.261815990163654977e+00 1.229914038340113869e-01 1.109254676688221197e+00 -2.659104991790515626e+00 1.059849948341059014e-02 -3.267448927394847047e+00 -2.116793984226963410e+00 5.274817420519066324e+00 3.477881860044123918e+00 2.114546839878248097e+00 -5.272740380369562274e+00 -3.478120818391686964e+00
