 vasp.5.4.4.18Apr17-6-g9f103f2a35 (build Jul 12 2018 13:43:46) complex           
 executed on             LinuxGNU date 2019.06.24  12:44:32
 running on    1 total cores
 distrk:  each k-point on    1 cores,    1 groups
 distr:  one band on NCORES_PER_BAND=   1 cores,    1 groups


--------------------------------------------------------------------------------------------------------


 INCAR:
 POTCAR:    PAW_PBE H 15Jun2001                   
 POTCAR:    PAW_PBE C 08Apr2002                   
 POTCAR:    PAW_PBE H 15Jun2001                   
   VRHFIN =H: ultrasoft test                                                    
   LEXCH  = PE                                                                  
   EATOM  =    12.4884 eV,    0.9179 Ry                                         
                                                                                
   TITEL  = PAW_PBE H 15Jun2001                                                 
   LULTRA =        F    use ultrasoft PP ?                                      
   IUNSCR =        0    unscreen: 0-lin 1-nonlin 2-no                           
   RPACOR =    0.000    partial core radius                                     
   POMASS =    1.000; ZVAL   =    1.000    mass and valenz                      
   RCORE  =    1.100    outmost cutoff radius                                   
   RWIGS  =    0.700; RWIGS  =    0.370    wigner-seitz radius (au A)           
   ENMAX  =  250.000; ENMIN  =  200.000 eV                                      
   RCLOC  =    0.701    cutoff for local pot                                    
   LCOR   =        T    correct aug charges                                     
   LPAW   =        T    paw PP                                                  
   EAUG   =  400.000                                                            
   RMAX   =    1.123    core radius for proj-oper                               
   RAUG   =    1.200    factor for augmentation sphere                          
   RDEP   =    1.112    radius for radial grids                                 
   RDEPT  =    0.926    core radius for aug-charge                              
                                                                                
   Atomic configuration                                                         
    2 entries                                                                   
     n  l   j            E        occ.                                          
     1  0  0.50        -6.4927   1.0000                                         
     2  1  0.50        -3.4015   0.0000                                         
   Description                                                                  
     l       E           TYP  RCUT    TYP  RCUT                                 
     0     -6.4927494     23  1.100                                             
     0      6.8029130     23  1.100                                             
     1     -4.0817478     23  1.100                                             
  local pseudopotential read in
  atomic valenz-charges read in
  non local Contribution for L=           0  read in
    real space projection operators read in
  non local Contribution for L=           0  read in
    real space projection operators read in
  non local Contribution for L=           1  read in
    real space projection operators read in
    PAW grid and wavefunctions read in

   number of l-projection  operators is LMAX  =           3
   number of lm-projection operators is LMMAX =           5

 POTCAR:    PAW_PBE C 08Apr2002                   
   VRHFIN =C: s2p2                                                              
   LEXCH  = PE                                                                  
   EATOM  =   147.1560 eV,   10.8157 Ry                                         
                                                                                
   TITEL  = PAW_PBE C 08Apr2002                                                 
   LULTRA =        F    use ultrasoft PP ?                                      
   IUNSCR =        1    unscreen: 0-lin 1-nonlin 2-no                           
   RPACOR =    1.200    partial core radius                                     
   POMASS =   12.011; ZVAL   =    4.000    mass and valenz                      
   RCORE  =    1.500    outmost cutoff radius                                   
   RWIGS  =    1.630; RWIGS  =    0.863    wigner-seitz radius (au A)           
   ENMAX  =  400.000; ENMIN  =  300.000 eV                                      
   ICORE  =        2    local potential                                         
   LCOR   =        T    correct aug charges                                     
   LPAW   =        T    paw PP                                                  
   EAUG   =  644.873                                                            
   DEXC   =    0.000                                                            
   RMAX   =    1.529    core radius for proj-oper                               
   RAUG   =    1.300    factor for augmentation sphere                          
   RDEP   =    1.501    radius for radial grids                                 
   RDEPT  =    1.300    core radius for aug-charge                              
                                                                                
   Atomic configuration                                                         
    4 entries                                                                   
     n  l   j            E        occ.                                          
     1  0  0.50      -273.3789   2.0000                                         
     2  0  0.50       -13.7508   2.0000                                         
     2  1  0.50        -5.2854   2.0000                                         
     3  2  1.50        -5.4423   0.0000                                         
   Description                                                                  
     l       E           TYP  RCUT    TYP  RCUT                                 
     0    -13.7508458     23  1.200                                             
     0     -8.2022199     23  1.200                                             
     1     -5.2854383     23  1.500                                             
     1     34.0145650     23  1.500                                             
     2     -5.4423304      7  1.500                                             
  local pseudopotential read in
  partial core-charges read in
  partial kinetic energy density read in
  atomic valenz-charges read in
  non local Contribution for L=           0  read in
    real space projection operators read in
  non local Contribution for L=           0  read in
    real space projection operators read in
  non local Contribution for L=           1  read in
    real space projection operators read in
  non local Contribution for L=           1  read in
    real space projection operators read in
    PAW grid and wavefunctions read in

   number of l-projection  operators is LMAX  =           4
   number of lm-projection operators is LMMAX =           8


 ----------------------------------------------------------------------------- 
|                                                                             |
|  ADVICE TO THIS USER RUNNING 'VASP/VAMP'   (HEAR YOUR MASTER'S VOICE ...):  |
|                                                                             |
|      You have a (more or less) 'small supercell' and for smaller cells      |
|      it is recommended  to use the reciprocal-space projection scheme!      |
|      The real space optimization is not  efficient for small cells and it   |
|      is also less accurate ...                                              |
|      Therefore set LREAL=.FALSE. in the  INCAR file                         |
|                                                                             |
 ----------------------------------------------------------------------------- 

 Optimization of the real space projectors (new method)

 maximal supplied QI-value         = 34.20
 optimisation between [QCUT,QGAM] = [  9.92, 20.18] = [ 27.55,114.04] Ry 
 Optimized for a Real-space Cutoff    1.34 Angstroem

   l    n(q)    QCUT    max X(q) W(low)/X(q) W(high)/X(q)  e(spline) 
   0      8     9.919    19.460    0.16E-03    0.20E-03    0.36E-06
   0      8     9.919    12.209    0.16E-03    0.20E-03    0.35E-06
   1      8     9.919     4.655    0.19E-03    0.46E-03    0.40E-06
 Optimization of the real space projectors (new method)

 maximal supplied QI-value         = 25.13
 optimisation between [QCUT,QGAM] = [ 10.05, 20.36] = [ 28.30,116.06] Ry 
 Optimized for a Real-space Cutoff    1.51 Angstroem

   l    n(q)    QCUT    max X(q) W(low)/X(q) W(high)/X(q)  e(spline) 
   0      9    10.053   115.676    0.19E-03    0.21E-03    0.38E-06
   0      9    10.053    87.132    0.19E-03    0.21E-03    0.38E-06
   1      9    10.053     4.429    0.87E-04    0.11E-03    0.39E-06
   1      9    10.053     2.733    0.59E-04    0.62E-04    0.43E-06
  PAW_PBE H 15Jun2001                   :
 energy of atom  1       EATOM=  -12.4884
 kinetic energy error for atom=    0.0098 (will be added to EATOM!!)
  PAW_PBE C 08Apr2002                   :
 energy of atom  2       EATOM= -147.1560
 kinetic energy error for atom=    0.0288 (will be added to EATOM!!)


 POSCAR: POSCAR file written by OVITO            
  positions in cartesian coordinates
  No initial velocities read in
 exchange correlation table for  LEXCH =        8
   RHO(1)=    0.500       N(1)  =     2000
   RHO(2)=  100.500       N(2)  =     4000



--------------------------------------------------------------------------------------------------------


 ion  position               nearest neighbor table
   1  0.504  0.564  0.486-   5 1.08
   2  0.605  0.442  0.443-   5 1.08
   3  0.461  0.465  0.350-   5 1.06
   4  0.454  0.400  0.512-   5 1.10
   5  0.502  0.467  0.444-   3 1.06   2 1.08   1 1.08   4 1.10


IMPORTANT INFORMATION: All symmetrisations will be switched off!
NOSYMM: (Re-)initialisation of all symmetry stuff for point group C_1.




Automatic generation of k-mesh.
 generate k-points for:    1    1    1
Space group operators:
 irot       det(A)        alpha          n_x          n_y          n_z        tau_x        tau_y        tau_z
    1     1.000000     0.000000     1.000000     0.000000     0.000000     0.000000     0.000000     0.000000
 
 Subroutine IBZKPT returns following result:
 ===========================================
 
 Found      1 irreducible k-points:
 
 Following reciprocal coordinates:
            Coordinates               Weight
  0.000000  0.000000  0.000000      1.000000
 
 Following cartesian coordinates:
            Coordinates               Weight
  0.000000  0.000000  0.000000      1.000000
 


--------------------------------------------------------------------------------------------------------




 Dimension of arrays:
   k-points           NKPTS =      1   k-points in BZ     NKDIM =      1   number of bands    NBANDS=      8
   number of dos      NEDOS =    301   number of ions     NIONS =      5
   non local maximal  LDIM  =      4   non local SUM 2l+1 LMDIM =      8
   total plane-waves  NPLWV = 343000
   max r-space proj   IRMAX =   4619   max aug-charges    IRDMAX=   3949
   dimension x,y,z NGX =    70 NGY =   70 NGZ =   70
   dimension x,y,z NGXF=   140 NGYF=  140 NGZF=  140
   support grid    NGXF=   140 NGYF=  140 NGZF=  140
   ions per type =               4   1
   NGX,Y,Z   is equivalent  to a cutoff of  11.34, 11.34, 11.34 a.u.
   NGXF,Y,Z  is equivalent  to a cutoff of  22.69, 22.69, 22.69 a.u.

 SYSTEM =  unknown system                          
 POSCAR =  POSCAR file written by OVITO            

 Startparameter for this run:
   NWRITE =      2    write-flag & timer
   PREC   = a         normal or accurate (medium, high low for compatibility)
   ISTART =      0    job   : 0-new  1-cont  2-samecut
   ICHARG =      2    charge: 1-file 2-atom 10-const
   ISPIN  =      1    spin polarized calculation?
   LNONCOLLINEAR =      F non collinear calculations
   LSORBIT =      F    spin-orbit coupling
   INIWAV =      1    electr: 0-lowe 1-rand  2-diag
   LASPH  =      F    aspherical Exc in radial PAW
   METAGGA=      F    non-selfconsistent MetaGGA calc.

 Electronic Relaxation 1
   ENCUT  =  400.0 eV  29.40 Ry    5.42 a.u.  16.73 16.73 16.73*2*pi/ulx,y,z
   ENINI  =  400.0     initial cutoff
   ENAUG  =  644.9 eV  augmentation charge cutoff
   NELM   =    120;   NELMIN=  4; NELMDL= -5     # of ELM steps 
   EDIFF  = 0.1E-05   stopping-criterion for ELM
   LREAL  =      T    real-space projection
   NLSPLINE    = F    spline interpolate recip. space projectors
   LCOMPAT=      F    compatible to vasp.4.4
   GGA_COMPAT  = T    GGA compatible to vasp.4.4-vasp.4.6
   LMAXPAW     = -100 max onsite density
   LMAXMIX     =    2 max onsite mixed and CHGCAR
   VOSKOWN=      0    Vosko Wilk Nusair interpolation
   ROPT   =   -0.00025  -0.00025
 Ionic relaxation
   EDIFFG = 0.1E-04   stopping-criterion for IOM
   NSW    =      0    number of steps for IOM
   NBLOCK =      1;   KBLOCK =      1    inner block; outer block 
   IBRION =     -1    ionic relax: 0-MD 1-quasi-New 2-CG
   NFREE  =      0    steps in history (QN), initial steepest desc. (CG)
   ISIF   =      2    stress and relaxation
   IWAVPR =     10    prediction:  0-non 1-charg 2-wave 3-comb
   ISYM   =      0    0-nonsym 1-usesym 2-fastsym
   LCORR  =      T    Harris-Foulkes like correction to forces

   POTIM  = 0.5000    time-step for ionic-motion
   TEIN   =    0.0    initial temperature
   TEBEG  =    0.0;   TEEND  =   0.0 temperature during run
   SMASS  =  -3.00    Nose mass-parameter (am)
   estimated Nose-frequenzy (Omega)   =  0.10E-29 period in steps =****** mass=  -0.240E-26a.u.
   SCALEE = 1.0000    scale energy and forces
   NPACO  =    256;   APACO  = 16.0  distance and # of slots for P.C.
   PSTRESS=    0.0 pullay stress

  Mass of Ions in am
   POMASS =   1.00 12.01
  Ionic Valenz
   ZVAL   =   1.00  4.00
  Atomic Wigner-Seitz radii
   RWIGS  =  -1.00 -1.00
  virtual crystal weights 
   VCA    =   1.00  1.00
   NELECT =       8.0000    total number of electrons
   NUPDOWN=      -1.0000    fix difference up-down

 DOS related values:
   EMIN   =  10.00;   EMAX   =-10.00  energy-range for DOS
   EFERMI =   0.00
   ISMEAR =     0;   SIGMA  =   0.05  broadening in eV -4-tet -1-fermi 0-gaus

 Electronic relaxation 2 (details)
   IALGO  =     38    algorithm
   LDIAG  =      T    sub-space diagonalisation (order eigenvalues)
   LSUBROT=      F    optimize rotation matrix (better conditioning)
   TURBO    =      0    0=normal 1=particle mesh
   IRESTART =      0    0=no restart 2=restart with 2 vectors
   NREBOOT  =      0    no. of reboots
   NMIN     =      0    reboot dimension
   EREF     =   0.00    reference energy to select bands
   IMIX   =      4    mixing-type and parameters
     AMIX     =   0.40;   BMIX     =  1.00
     AMIX_MAG =   1.60;   BMIX_MAG =  1.00
     AMIN     =   0.10
     WC   =   100.;   INIMIX=   1;  MIXPRE=   1;  MAXMIX= -45

 Intra band minimization:
   WEIMIN = 0.0000     energy-eigenvalue tresh-hold
   EBREAK =  0.31E-07  absolut break condition
   DEPER  =   0.30     relativ break condition  

   TIME   =   0.40     timestep for ELM

  volume/ion in A,a.u.               =     215.87      1456.73
  Fermi-wavevector in a.u.,A,eV,Ry     =   0.319193  0.603188  1.386220  0.101884
  Thomas-Fermi vector in A             =   1.204705

 Write flags
   LWAVE        =      F    write WAVECAR
   LDOWNSAMPLE  =      F    k-point downsampling of WAVECAR
   LCHARG       =      F    write CHGCAR
   LVTOT        =      F    write LOCPOT, total local potential
   LVHAR        =      F    write LOCPOT, Hartree potential only
   LELF         =      F    write electronic localiz. function (ELF)
   LORBIT       =      0    0 simple, 1 ext, 2 COOP (PROOUT), +10 PAW based schemes


 Dipole corrections
   LMONO  =      F    monopole corrections only (constant potential shift)
   LDIPOL =      F    correct potential (dipole corrections)
   IDIPOL =      0    1-x, 2-y, 3-z, 4-all directions 
   EPSILON=  1.0000000 bulk dielectric constant

 Exchange correlation treatment:
   GGA     =    --    GGA type
   LEXCH   =     8    internal setting for exchange type
   VOSKOWN=      0    Vosko Wilk Nusair interpolation
   LHFCALC =     F    Hartree Fock is set to
   LHFONE  =     F    Hartree Fock one center treatment
   AEXX    =    0.0000 exact exchange contribution

 Linear response parameters
   LEPSILON=     F    determine dielectric tensor
   LRPA    =     F    only Hartree local field effects (RPA)
   LNABLA  =     F    use nabla operator in PAW spheres
   LVEL    =     F    velocity operator in full k-point grid
   LINTERFAST=   F  fast interpolation
   KINTER  =     0    interpolate to denser k-point grid
   CSHIFT  =0.1000    complex shift for real part using Kramers Kronig
   OMEGAMAX=  -1.0    maximum frequency
   DEG_THRESHOLD= 0.2000000E-02 threshold for treating states as degnerate
   RTIME   =   -0.100 relaxation time in fs
  (WPLASMAI=    0.000 imaginary part of plasma frequency in eV, 0.658/RTIME)
   DFIELD  = 0.0000000 0.0000000 0.0000000 field for delta impulse in time

 Orbital magnetization related:
   ORBITALMAG=     F  switch on orbital magnetization
   LCHIMAG   =     F  perturbation theory with respect to B field
   DQ        =  0.001000  dq finite difference perturbation B field
   LLRAUG    =     F  two centre corrections for induced B field



--------------------------------------------------------------------------------------------------------


 Static calculation
 charge density and potential will be updated during run
 non-spin polarized calculation
 Variant of blocked Davidson
 Davidson routine will perform the subspace rotation
 perform sub-space diagonalisation
    after iterative eigenvector-optimisation
 modified Broyden-mixing scheme, WC =      100.0
 initial mixing is a Kerker type mixing with AMIX =  0.4000 and BMIX =      1.0000
 Hartree-type preconditioning will be used
 using additional bands            4
 real space projection scheme for non local part
 use partial core corrections
 calculate Harris-corrections to forces   (improved forces if not selfconsistent)
 use gradient corrections 
 use of overlap-Matrix (Vanderbilt PP)
 Gauss-broadening in eV      SIGMA  =   0.05


--------------------------------------------------------------------------------------------------------


  energy-cutoff  :      400.00
  volume of cell :     1079.33
      direct lattice vectors                 reciprocal lattice vectors
    10.257728600  0.000000000  0.000000000     0.097487469  0.000000000  0.000000000
     0.000000000 10.257728600  0.000000000     0.000000000  0.097487469  0.000000000
     0.000000000  0.000000000 10.257728600     0.000000000  0.000000000  0.097487469

  length of vectors
    10.257728600 10.257728600 10.257728600     0.097487469  0.097487469  0.097487469



 k-points in units of 2pi/SCALE and weight: read from INCAR                         
   0.00000000  0.00000000  0.00000000       1.000

 k-points in reciprocal lattice and weights: read from INCAR                         
   0.00000000  0.00000000  0.00000000       1.000

 position of ions in fractional coordinates (direct lattice) 
   0.50392771  0.56414476  0.48578138
   0.60480774  0.44248331  0.44333242
   0.46104787  0.46451746  0.34994528
   0.45382209  0.39981111  0.51206693
   0.50236402  0.46709597  0.44438239

 position of ions in cartesian coordinates  (Angst):
   5.16915370  5.78684380  4.98301360
   6.20395370  4.53887370  4.54758360
   4.72930390  4.76489400  3.58964370
   4.65518380  4.10115390  5.25264360
   5.15311380  4.79134370  4.55835390



--------------------------------------------------------------------------------------------------------


 k-point  1 :   0.0000 0.0000 0.0000  plane waves:   19549

 maximum and minimum number of plane-waves per node :     19549    19549

 maximum number of plane-waves:     19549
 maximum index in each direction: 
   IXMAX=   16   IYMAX=   16   IZMAX=   16
   IXMIN=  -16   IYMIN=  -16   IZMIN=  -16


 serial   3D FFT for wavefunctions
 parallel 3D FFT for charge:
    minimum data exchange during FFTs selected (reduces bandwidth)


 total amount of memory used by VASP MPI-rank0   297499. kBytes
=======================================================================

   base      :      30000. kBytes
   nonlr-proj:       1249. kBytes
   fftplans  :      94700. kBytes
   grid      :     169030. kBytes
   one-center:         15. kBytes
   wavefun   :       2505. kBytes

     INWAV:  cpu time    0.0000: real time    0.0000
 Broyden mixing: mesh for mixing (old mesh)
   NGX = 33   NGY = 33   NGZ = 33
  (NGX  =140   NGY  =140   NGZ  =140)
  gives a total of  35937 points

 initial charge density was supplied:
 charge density of overlapping atoms calculated
 number of electron       8.0000000 magnetization 
 keeping initial charge density in first step


--------------------------------------------------------------------------------------------------------


 Maximum index for non-local projection operator         4434
 Maximum index for augmentation-charges         3640 (set IRDMAX)


--------------------------------------------------------------------------------------------------------


 First call to EWALD:  gamma=   0.173
 Maximum number of real-space cells 3x 3x 3
 Maximum number of reciprocal cells 3x 3x 3

    FEWALD:  cpu time    0.0007: real time    0.0007


--------------------------------------- Iteration      1(   1)  ---------------------------------------


    POTLOK:  cpu time    1.8156: real time    1.8200
    SETDIJ:  cpu time    0.0064: real time    0.0064
     EDDAV:  cpu time    0.5167: real time    0.5180
       DOS:  cpu time    0.0001: real time    0.0001
    --------------------------------------------
      LOOP:  cpu time    2.3388: real time    2.3446

 eigenvalue-minimisations  :    16
 total energy-change (2. order) : 0.6416319E+02  (-0.1473808E+03)
 number of electron       8.0000000 magnetization 
 augmentation part        8.0000000 magnetization 

 Free energy of the ion-electron system (eV)
  ---------------------------------------------------
  alpha Z        PSCENC =         0.22444586
  Ewald energy   TEWEN  =       136.07882290
  -Hartree energ DENC   =      -249.14380636
  -exchange      EXHF   =         0.00000000
  -V(xc)+E(xc)   XCENC  =        22.10852432
  PAW double counting   =       117.05815612     -117.66307307
  entropy T*S    EENTRO =        -0.00000000
  eigenvalues    EBANDS =       -41.54163310
  atomic energy  EATOM  =       197.04175453
  Solvation  Ediel_sol  =         0.00000000
  ---------------------------------------------------
  free energy    TOTEN  =        64.16319120 eV

  energy without entropy =       64.16319120  energy(sigma->0) =       64.16319120


--------------------------------------------------------------------------------------------------------




--------------------------------------- Iteration      1(   2)  ---------------------------------------


     EDDAV:  cpu time    0.9180: real time    0.9204
       DOS:  cpu time    0.0001: real time    0.0001
    --------------------------------------------
      LOOP:  cpu time    0.9181: real time    0.9205

 eigenvalue-minimisations  :    32
 total energy-change (2. order) :-0.7450490E+02  (-0.7450490E+02)
 number of electron       8.0000000 magnetization 
 augmentation part        8.0000000 magnetization 

 Free energy of the ion-electron system (eV)
  ---------------------------------------------------
  alpha Z        PSCENC =         0.22444586
  Ewald energy   TEWEN  =       136.07882290
  -Hartree energ DENC   =      -249.14380636
  -exchange      EXHF   =         0.00000000
  -V(xc)+E(xc)   XCENC  =        22.10852432
  PAW double counting   =       117.05815612     -117.66307307
  entropy T*S    EENTRO =        -0.00000000
  eigenvalues    EBANDS =      -116.04653058
  atomic energy  EATOM  =       197.04175453
  Solvation  Ediel_sol  =         0.00000000
  ---------------------------------------------------
  free energy    TOTEN  =       -10.34170628 eV

  energy without entropy =      -10.34170628  energy(sigma->0) =      -10.34170628


--------------------------------------------------------------------------------------------------------




--------------------------------------- Iteration      1(   3)  ---------------------------------------


     EDDAV:  cpu time    0.5169: real time    0.5181
       DOS:  cpu time    0.0001: real time    0.0001
    --------------------------------------------
      LOOP:  cpu time    0.5170: real time    0.5182

 eigenvalue-minimisations  :    16
 total energy-change (2. order) :-0.1641855E+02  (-0.1641855E+02)
 number of electron       8.0000000 magnetization 
 augmentation part        8.0000000 magnetization 

 Free energy of the ion-electron system (eV)
  ---------------------------------------------------
  alpha Z        PSCENC =         0.22444586
  Ewald energy   TEWEN  =       136.07882290
  -Hartree energ DENC   =      -249.14380636
  -exchange      EXHF   =         0.00000000
  -V(xc)+E(xc)   XCENC  =        22.10852432
  PAW double counting   =       117.05815612     -117.66307307
  entropy T*S    EENTRO =        -0.00000000
  eigenvalues    EBANDS =      -132.46507891
  atomic energy  EATOM  =       197.04175453
  Solvation  Ediel_sol  =         0.00000000
  ---------------------------------------------------
  free energy    TOTEN  =       -26.76025460 eV

  energy without entropy =      -26.76025460  energy(sigma->0) =      -26.76025460


--------------------------------------------------------------------------------------------------------




--------------------------------------- Iteration      1(   4)  ---------------------------------------


     EDDAV:  cpu time    0.9372: real time    0.9395
       DOS:  cpu time    0.0001: real time    0.0001
    --------------------------------------------
      LOOP:  cpu time    0.9374: real time    0.9396

 eigenvalue-minimisations  :    32
 total energy-change (2. order) :-0.9742833E+00  (-0.9742833E+00)
 number of electron       8.0000000 magnetization 
 augmentation part        8.0000000 magnetization 

 Free energy of the ion-electron system (eV)
  ---------------------------------------------------
  alpha Z        PSCENC =         0.22444586
  Ewald energy   TEWEN  =       136.07882290
  -Hartree energ DENC   =      -249.14380636
  -exchange      EXHF   =         0.00000000
  -V(xc)+E(xc)   XCENC  =        22.10852432
  PAW double counting   =       117.05815612     -117.66307307
  entropy T*S    EENTRO =        -0.00000000
  eigenvalues    EBANDS =      -133.43936222
  atomic energy  EATOM  =       197.04175453
  Solvation  Ediel_sol  =         0.00000000
  ---------------------------------------------------
  free energy    TOTEN  =       -27.73453791 eV

  energy without entropy =      -27.73453791  energy(sigma->0) =      -27.73453791


--------------------------------------------------------------------------------------------------------




--------------------------------------- Iteration      1(   5)  ---------------------------------------


     EDDAV:  cpu time    0.9191: real time    0.9212
       DOS:  cpu time    0.0001: real time    0.0001
    CHARGE:  cpu time    0.1100: real time    0.1102
    MIXING:  cpu time    0.0362: real time    0.0362
    --------------------------------------------
      LOOP:  cpu time    1.0653: real time    1.0678

 eigenvalue-minimisations  :    32
 total energy-change (2. order) :-0.4698437E-03  (-0.4698437E-03)
 number of electron       8.0000002 magnetization 
 augmentation part        0.2317951 magnetization 

 Broyden mixing:
  rms(total) = 0.90419E+00    rms(broyden)= 0.90392E+00
  rms(prec ) = 0.12687E+01
  weight for this iteration     100.00

 Free energy of the ion-electron system (eV)
  ---------------------------------------------------
  alpha Z        PSCENC =         0.22444586
  Ewald energy   TEWEN  =       136.07882290
  -Hartree energ DENC   =      -249.14380636
  -exchange      EXHF   =         0.00000000
  -V(xc)+E(xc)   XCENC  =        22.10852432
  PAW double counting   =       117.05815612     -117.66307307
  entropy T*S    EENTRO =        -0.00000000
  eigenvalues    EBANDS =      -133.43983206
  atomic energy  EATOM  =       197.04175453
  Solvation  Ediel_sol  =         0.00000000
  ---------------------------------------------------
  free energy    TOTEN  =       -27.73500776 eV

  energy without entropy =      -27.73500776  energy(sigma->0) =      -27.73500776


--------------------------------------------------------------------------------------------------------




--------------------------------------- Iteration      1(   6)  ---------------------------------------


    POTLOK:  cpu time    1.8125: real time    1.8169
    SETDIJ:  cpu time    0.0063: real time    0.0063
     EDDAV:  cpu time    0.7483: real time    0.7501
       DOS:  cpu time    0.0001: real time    0.0001
    CHARGE:  cpu time    0.1025: real time    0.1028
    MIXING:  cpu time    0.0371: real time    0.0372
    --------------------------------------------
      LOOP:  cpu time    2.7069: real time    2.7134

 eigenvalue-minimisations  :    24
 total energy-change (2. order) : 0.3095971E+01  (-0.9223048E+00)
 number of electron       8.0000002 magnetization 
 augmentation part        0.2029037 magnetization 

 Broyden mixing:
  rms(total) = 0.45946E+00    rms(broyden)= 0.45933E+00
  rms(prec ) = 0.57471E+00
  weight for this iteration     100.00

 eigenvalues of (default mixing * dielectric matrix)
  average eigenvalue GAMMA=   1.2113
  1.2113

 Free energy of the ion-electron system (eV)
  ---------------------------------------------------
  alpha Z        PSCENC =         0.22444586
  Ewald energy   TEWEN  =       136.07882290
  -Hartree energ DENC   =      -269.57714925
  -exchange      EXHF   =         0.00000000
  -V(xc)+E(xc)   XCENC  =        23.34849685
  PAW double counting   =       244.52235963     -245.31201391
  entropy T*S    EENTRO =        -0.00000000
  eigenvalues    EBANDS =      -110.96575305
  atomic energy  EATOM  =       197.04175453
  Solvation  Ediel_sol  =         0.00000000
  ---------------------------------------------------
  free energy    TOTEN  =       -24.63903645 eV

  energy without entropy =      -24.63903645  energy(sigma->0) =      -24.63903645


--------------------------------------------------------------------------------------------------------




--------------------------------------- Iteration      1(   7)  ---------------------------------------


    POTLOK:  cpu time    1.7825: real time    1.7867
    SETDIJ:  cpu time    0.0064: real time    0.0064
     EDDAV:  cpu time    0.7370: real time    0.7388
       DOS:  cpu time    0.0001: real time    0.0001
    CHARGE:  cpu time    0.1065: real time    0.1068
    MIXING:  cpu time    0.0415: real time    0.0416
    --------------------------------------------
      LOOP:  cpu time    2.6740: real time    2.6804

 eigenvalue-minimisations  :    24
 total energy-change (2. order) : 0.5196929E+00  (-0.8515619E-01)
 number of electron       8.0000002 magnetization 
 augmentation part        0.1938039 magnetization 

 Broyden mixing:
  rms(total) = 0.23224E+00    rms(broyden)= 0.23219E+00
  rms(prec ) = 0.28349E+00
  weight for this iteration     100.00

 eigenvalues of (default mixing * dielectric matrix)
  average eigenvalue GAMMA=   1.6981
  1.2693  2.1270

 Free energy of the ion-electron system (eV)
  ---------------------------------------------------
  alpha Z        PSCENC =         0.22444586
  Ewald energy   TEWEN  =       136.07882290
  -Hartree energ DENC   =      -280.27282248
  -exchange      EXHF   =         0.00000000
  -V(xc)+E(xc)   XCENC  =        24.14535192
  PAW double counting   =       382.80959364     -383.63206240
  entropy T*S    EENTRO =        -0.00000000
  eigenvalues    EBANDS =      -100.51442755
  atomic energy  EATOM  =       197.04175453
  Solvation  Ediel_sol  =         0.00000000
  ---------------------------------------------------
  free energy    TOTEN  =       -24.11934357 eV

  energy without entropy =      -24.11934357  energy(sigma->0) =      -24.11934357


--------------------------------------------------------------------------------------------------------




--------------------------------------- Iteration      1(   8)  ---------------------------------------


    POTLOK:  cpu time    1.8094: real time    1.8136
    SETDIJ:  cpu time    0.0062: real time    0.0062
     EDDAV:  cpu time    0.5138: real time    0.5150
       DOS:  cpu time    0.0001: real time    0.0001
    CHARGE:  cpu time    0.0981: real time    0.0983
    MIXING:  cpu time    0.0366: real time    0.0367
    --------------------------------------------
      LOOP:  cpu time    2.4641: real time    2.4700

 eigenvalue-minimisations  :    16
 total energy-change (2. order) : 0.1658835E+00  (-0.1744073E-01)
 number of electron       8.0000001 magnetization 
 augmentation part        0.1910709 magnetization 

 Broyden mixing:
  rms(total) = 0.27211E-01    rms(broyden)= 0.27178E-01
  rms(prec ) = 0.56067E-01
  weight for this iteration     100.00

 eigenvalues of (default mixing * dielectric matrix)
  average eigenvalue GAMMA=   1.5644
  2.1677  1.1038  1.4218

 Free energy of the ion-electron system (eV)
  ---------------------------------------------------
  alpha Z        PSCENC =         0.22444586
  Ewald energy   TEWEN  =       136.07882290
  -Hartree energ DENC   =      -287.32350586
  -exchange      EXHF   =         0.00000000
  -V(xc)+E(xc)   XCENC  =        24.77162046
  PAW double counting   =       503.19941714     -504.00774735
  entropy T*S    EENTRO =        -0.00000000
  eigenvalues    EBANDS =       -93.93826777
  atomic energy  EATOM  =       197.04175453
  Solvation  Ediel_sol  =         0.00000000
  ---------------------------------------------------
  free energy    TOTEN  =       -23.95346009 eV

  energy without entropy =      -23.95346009  energy(sigma->0) =      -23.95346009


--------------------------------------------------------------------------------------------------------




--------------------------------------- Iteration      1(   9)  ---------------------------------------


    POTLOK:  cpu time    1.8275: real time    1.8319
    SETDIJ:  cpu time    0.0068: real time    0.0068
     EDDAV:  cpu time    0.9770: real time    0.9793
       DOS:  cpu time    0.0001: real time    0.0001
    CHARGE:  cpu time    0.1041: real time    0.1044
    MIXING:  cpu time    0.0388: real time    0.0389
    --------------------------------------------
      LOOP:  cpu time    2.9543: real time    2.9613

 eigenvalue-minimisations  :    32
 total energy-change (2. order) : 0.7994471E-02  (-0.3772220E-03)
 number of electron       8.0000001 magnetization 
 augmentation part        0.1906914 magnetization 

 Broyden mixing:
  rms(total) = 0.17561E-01    rms(broyden)= 0.17557E-01
  rms(prec ) = 0.37409E-01
  weight for this iteration     100.00

 eigenvalues of (default mixing * dielectric matrix)
  average eigenvalue GAMMA=   1.9189
  3.0563  2.4223  1.2517  0.9453

 Free energy of the ion-electron system (eV)
  ---------------------------------------------------
  alpha Z        PSCENC =         0.22444586
  Ewald energy   TEWEN  =       136.07882290
  -Hartree energ DENC   =      -288.73406504
  -exchange      EXHF   =         0.00000000
  -V(xc)+E(xc)   XCENC  =        24.85224582
  PAW double counting   =       503.59060079     -504.39546726
  entropy T*S    EENTRO =        -0.00000000
  eigenvalues    EBANDS =       -92.60380322
  atomic energy  EATOM  =       197.04175453
  Solvation  Ediel_sol  =         0.00000000
  ---------------------------------------------------
  free energy    TOTEN  =       -23.94546562 eV

  energy without entropy =      -23.94546562  energy(sigma->0) =      -23.94546562


--------------------------------------------------------------------------------------------------------




--------------------------------------- Iteration      1(  10)  ---------------------------------------


    POTLOK:  cpu time    1.7346: real time    1.7387
    SETDIJ:  cpu time    0.0066: real time    0.0066
     EDDAV:  cpu time    0.5273: real time    0.5285
       DOS:  cpu time    0.0001: real time    0.0001
    CHARGE:  cpu time    0.1037: real time    0.1040
    MIXING:  cpu time    0.0401: real time    0.0402
    --------------------------------------------
      LOOP:  cpu time    2.4124: real time    2.4181

 eigenvalue-minimisations  :    16
 total energy-change (2. order) : 0.9987253E-02  (-0.7035193E-03)
 number of electron       8.0000001 magnetization 
 augmentation part        0.1903532 magnetization 

 Broyden mixing:
  rms(total) = 0.74001E-02    rms(broyden)= 0.73988E-02
  rms(prec ) = 0.16658E-01
  weight for this iteration     100.00

 eigenvalues of (default mixing * dielectric matrix)
  average eigenvalue GAMMA=   1.7748
  3.0021  2.3789  0.9707  1.2611  1.2611

 Free energy of the ion-electron system (eV)
  ---------------------------------------------------
  alpha Z        PSCENC =         0.22444586
  Ewald energy   TEWEN  =       136.07882290
  -Hartree energ DENC   =      -290.52426893
  -exchange      EXHF   =         0.00000000
  -V(xc)+E(xc)   XCENC  =        24.92940568
  PAW double counting   =       492.30730488     -493.10917693
  entropy T*S    EENTRO =        -0.00000000
  eigenvalues    EBANDS =       -90.88376636
  atomic energy  EATOM  =       197.04175453
  Solvation  Ediel_sol  =         0.00000000
  ---------------------------------------------------
  free energy    TOTEN  =       -23.93547837 eV

  energy without entropy =      -23.93547837  energy(sigma->0) =      -23.93547837


--------------------------------------------------------------------------------------------------------




--------------------------------------- Iteration      1(  11)  ---------------------------------------


    POTLOK:  cpu time    1.7090: real time    1.7130
    SETDIJ:  cpu time    0.0066: real time    0.0066
     EDDAV:  cpu time    0.5314: real time    0.5327
       DOS:  cpu time    0.0001: real time    0.0001
    CHARGE:  cpu time    0.1063: real time    0.1065
    MIXING:  cpu time    0.0402: real time    0.0403
    --------------------------------------------
      LOOP:  cpu time    2.3936: real time    2.3992

 eigenvalue-minimisations  :    16
 total energy-change (2. order) :-0.6943159E-02  (-0.1331203E-03)
 number of electron       8.0000001 magnetization 
 augmentation part        0.1902130 magnetization 

 Broyden mixing:
  rms(total) = 0.43383E-02    rms(broyden)= 0.43378E-02
  rms(prec ) = 0.10019E-01
  weight for this iteration     100.00

 eigenvalues of (default mixing * dielectric matrix)
  average eigenvalue GAMMA=   2.1298
  4.4442  2.8521  2.2890  1.2588  0.9674  0.9674

 Free energy of the ion-electron system (eV)
  ---------------------------------------------------
  alpha Z        PSCENC =         0.22444586
  Ewald energy   TEWEN  =       136.07882290
  -Hartree energ DENC   =      -290.99332807
  -exchange      EXHF   =         0.00000000
  -V(xc)+E(xc)   XCENC  =        24.94419085
  PAW double counting   =       494.75155301     -495.55369023
  entropy T*S    EENTRO =        -0.00000000
  eigenvalues    EBANDS =       -90.43617037
  atomic energy  EATOM  =       197.04175453
  Solvation  Ediel_sol  =         0.00000000
  ---------------------------------------------------
  free energy    TOTEN  =       -23.94242153 eV

  energy without entropy =      -23.94242153  energy(sigma->0) =      -23.94242153


--------------------------------------------------------------------------------------------------------




--------------------------------------- Iteration      1(  12)  ---------------------------------------


    POTLOK:  cpu time    1.6276: real time    1.6315
    SETDIJ:  cpu time    0.0062: real time    0.0062
     EDDAV:  cpu time    0.5354: real time    0.5366
       DOS:  cpu time    0.0001: real time    0.0001
    CHARGE:  cpu time    0.1050: real time    0.1053
    MIXING:  cpu time    0.0442: real time    0.0443
    --------------------------------------------
      LOOP:  cpu time    2.3186: real time    2.3241

 eigenvalue-minimisations  :    16
 total energy-change (2. order) :-0.4968617E-02  (-0.7082264E-04)
 number of electron       8.0000001 magnetization 
 augmentation part        0.1901511 magnetization 

 Broyden mixing:
  rms(total) = 0.23328E-02    rms(broyden)= 0.23327E-02
  rms(prec ) = 0.52699E-02
  weight for this iteration     100.00

 eigenvalues of (default mixing * dielectric matrix)
  average eigenvalue GAMMA=   2.3302
  5.2816  3.2139  2.2889  2.2889  1.2599  1.0256  0.9526

 Free energy of the ion-electron system (eV)
  ---------------------------------------------------
  alpha Z        PSCENC =         0.22444586
  Ewald energy   TEWEN  =       136.07882290
  -Hartree energ DENC   =      -291.18389057
  -exchange      EXHF   =         0.00000000
  -V(xc)+E(xc)   XCENC  =        24.93796829
  PAW double counting   =       492.48483731     -493.28726094
  entropy T*S    EENTRO =        -0.00000000
  eigenvalues    EBANDS =       -90.24406752
  atomic energy  EATOM  =       197.04175453
  Solvation  Ediel_sol  =         0.00000000
  ---------------------------------------------------
  free energy    TOTEN  =       -23.94739015 eV

  energy without entropy =      -23.94739015  energy(sigma->0) =      -23.94739015


--------------------------------------------------------------------------------------------------------




--------------------------------------- Iteration      1(  13)  ---------------------------------------


    POTLOK:  cpu time    1.5443: real time    1.5480
    SETDIJ:  cpu time    0.0062: real time    0.0062
     EDDAV:  cpu time    0.9595: real time    0.9618
       DOS:  cpu time    0.0001: real time    0.0001
    CHARGE:  cpu time    0.1068: real time    0.1070
    MIXING:  cpu time    0.0456: real time    0.0457
    --------------------------------------------
      LOOP:  cpu time    2.6625: real time    2.6688

 eigenvalue-minimisations  :    32
 total energy-change (2. order) :-0.4317364E-02  (-0.9976590E-04)
 number of electron       8.0000001 magnetization 
 augmentation part        0.1900912 magnetization 

 Broyden mixing:
  rms(total) = 0.12247E-02    rms(broyden)= 0.12244E-02
  rms(prec ) = 0.23731E-02
  weight for this iteration     100.00

 eigenvalues of (default mixing * dielectric matrix)
  average eigenvalue GAMMA=   2.3274
  5.9574  3.6584  2.3786  2.3786  1.2430  1.1076  0.9478  0.9478

 Free energy of the ion-electron system (eV)
  ---------------------------------------------------
  alpha Z        PSCENC =         0.22444586
  Ewald energy   TEWEN  =       136.07882290
  -Hartree energ DENC   =      -291.18120138
  -exchange      EXHF   =         0.00000000
  -V(xc)+E(xc)   XCENC  =        24.92958253
  PAW double counting   =       492.61164826     -493.41371338
  entropy T*S    EENTRO =        -0.00000000
  eigenvalues    EBANDS =       -90.24304683
  atomic energy  EATOM  =       197.04175453
  Solvation  Ediel_sol  =         0.00000000
  ---------------------------------------------------
  free energy    TOTEN  =       -23.95170751 eV

  energy without entropy =      -23.95170751  energy(sigma->0) =      -23.95170751


--------------------------------------------------------------------------------------------------------




--------------------------------------- Iteration      1(  14)  ---------------------------------------


    POTLOK:  cpu time    1.5548: real time    1.5585
    SETDIJ:  cpu time    0.0068: real time    0.0068
     EDDAV:  cpu time    0.5298: real time    0.5310
       DOS:  cpu time    0.0001: real time    0.0001
    CHARGE:  cpu time    0.1021: real time    0.1024
    MIXING:  cpu time    0.0422: real time    0.0423
    --------------------------------------------
      LOOP:  cpu time    2.2358: real time    2.2411

 eigenvalue-minimisations  :    16
 total energy-change (2. order) :-0.5790420E-03  (-0.4986795E-05)
 number of electron       8.0000001 magnetization 
 augmentation part        0.1901129 magnetization 

 Broyden mixing:
  rms(total) = 0.59492E-03    rms(broyden)= 0.59483E-03
  rms(prec ) = 0.14283E-02
  weight for this iteration     100.00

 eigenvalues of (default mixing * dielectric matrix)
  average eigenvalue GAMMA=   2.4894
  6.7330  4.3188  2.8199  2.2768  1.9476  1.2368  0.9675  0.9675  1.1368

 Free energy of the ion-electron system (eV)
  ---------------------------------------------------
  alpha Z        PSCENC =         0.22444586
  Ewald energy   TEWEN  =       136.07882290
  -Hartree energ DENC   =      -291.17220668
  -exchange      EXHF   =         0.00000000
  -V(xc)+E(xc)   XCENC  =        24.92866853
  PAW double counting   =       492.89331996     -493.69516388
  entropy T*S    EENTRO =        -0.00000000
  eigenvalues    EBANDS =       -90.25192776
  atomic energy  EATOM  =       197.04175453
  Solvation  Ediel_sol  =         0.00000000
  ---------------------------------------------------
  free energy    TOTEN  =       -23.95228655 eV

  energy without entropy =      -23.95228655  energy(sigma->0) =      -23.95228655


--------------------------------------------------------------------------------------------------------




--------------------------------------- Iteration      1(  15)  ---------------------------------------


    POTLOK:  cpu time    1.5246: real time    1.5284
    SETDIJ:  cpu time    0.0063: real time    0.0063
     EDDAV:  cpu time    0.5196: real time    0.5208
       DOS:  cpu time    0.0001: real time    0.0001
    CHARGE:  cpu time    0.1016: real time    0.1018
    MIXING:  cpu time    0.0433: real time    0.0434
    --------------------------------------------
      LOOP:  cpu time    2.1955: real time    2.2008

 eigenvalue-minimisations  :    16
 total energy-change (2. order) :-0.5269924E-03  (-0.4686536E-05)
 number of electron       8.0000001 magnetization 
 augmentation part        0.1901019 magnetization 

 Broyden mixing:
  rms(total) = 0.34792E-03    rms(broyden)= 0.34784E-03
  rms(prec ) = 0.59019E-03
  weight for this iteration     100.00

 eigenvalues of (default mixing * dielectric matrix)
  average eigenvalue GAMMA=   2.5432
  7.6257  4.6374  2.9307  2.5427  2.1774  1.2678  0.9600  1.0140  1.1382  1.1382

 Free energy of the ion-electron system (eV)
  ---------------------------------------------------
  alpha Z        PSCENC =         0.22444586
  Ewald energy   TEWEN  =       136.07882290
  -Hartree energ DENC   =      -291.19238994
  -exchange      EXHF   =         0.00000000
  -V(xc)+E(xc)   XCENC  =        24.92920079
  PAW double counting   =       492.75924898     -493.56116880
  entropy T*S    EENTRO =        -0.00000000
  eigenvalues    EBANDS =       -90.23272785
  atomic energy  EATOM  =       197.04175453
  Solvation  Ediel_sol  =         0.00000000
  ---------------------------------------------------
  free energy    TOTEN  =       -23.95281354 eV

  energy without entropy =      -23.95281354  energy(sigma->0) =      -23.95281354


--------------------------------------------------------------------------------------------------------




--------------------------------------- Iteration      1(  16)  ---------------------------------------


    POTLOK:  cpu time    1.5321: real time    1.5357
    SETDIJ:  cpu time    0.0063: real time    0.0063
     EDDAV:  cpu time    0.9268: real time    0.9290
       DOS:  cpu time    0.0001: real time    0.0001
    CHARGE:  cpu time    0.0986: real time    0.0988
    MIXING:  cpu time    0.0458: real time    0.0459
    --------------------------------------------
      LOOP:  cpu time    2.6095: real time    2.6156

 eigenvalue-minimisations  :    32
 total energy-change (2. order) :-0.9845160E-04  (-0.2568907E-06)
 number of electron       8.0000001 magnetization 
 augmentation part        0.1901053 magnetization 

 Broyden mixing:
  rms(total) = 0.21701E-03    rms(broyden)= 0.21699E-03
  rms(prec ) = 0.34791E-03
  weight for this iteration     100.00

 eigenvalues of (default mixing * dielectric matrix)
  average eigenvalue GAMMA=   2.7093
  8.5365  5.0879  3.7979  2.5688  2.4718  1.9919  1.2168  1.2168  0.9619  0.9619
  0.9897

 Free energy of the ion-electron system (eV)
  ---------------------------------------------------
  alpha Z        PSCENC =         0.22444586
  Ewald energy   TEWEN  =       136.07882290
  -Hartree energ DENC   =      -291.18220460
  -exchange      EXHF   =         0.00000000
  -V(xc)+E(xc)   XCENC  =        24.92806170
  PAW double counting   =       492.52113501     -493.32311855
  entropy T*S    EENTRO =        -0.00000000
  eigenvalues    EBANDS =       -90.24180884
  atomic energy  EATOM  =       197.04175453
  Solvation  Ediel_sol  =         0.00000000
  ---------------------------------------------------
  free energy    TOTEN  =       -23.95291200 eV

  energy without entropy =      -23.95291200  energy(sigma->0) =      -23.95291200


--------------------------------------------------------------------------------------------------------




--------------------------------------- Iteration      1(  17)  ---------------------------------------


    POTLOK:  cpu time    1.6001: real time    1.6039
    SETDIJ:  cpu time    0.0062: real time    0.0062
     EDDAV:  cpu time    0.5129: real time    0.5141
       DOS:  cpu time    0.0001: real time    0.0001
    CHARGE:  cpu time    0.0998: real time    0.1000
    MIXING:  cpu time    0.0451: real time    0.0452
    --------------------------------------------
      LOOP:  cpu time    2.2641: real time    2.2695

 eigenvalue-minimisations  :    16
 total energy-change (2. order) :-0.4963149E-04  (-0.2578972E-06)
 number of electron       8.0000001 magnetization 
 augmentation part        0.1901019 magnetization 

 Broyden mixing:
  rms(total) = 0.11180E-03    rms(broyden)= 0.11179E-03
  rms(prec ) = 0.14556E-03
  weight for this iteration     100.00

 eigenvalues of (default mixing * dielectric matrix)
  average eigenvalue GAMMA=   2.6253
  8.6639  5.2761  3.8167  2.7090  2.3398  1.9879  1.4002  1.1998  1.1998  1.0189
  0.9455  0.9455

 Free energy of the ion-electron system (eV)
  ---------------------------------------------------
  alpha Z        PSCENC =         0.22444586
  Ewald energy   TEWEN  =       136.07882290
  -Hartree energ DENC   =      -291.19649022
  -exchange      EXHF   =         0.00000000
  -V(xc)+E(xc)   XCENC  =        24.92896907
  PAW double counting   =       492.63654951     -493.43853327
  entropy T*S    EENTRO =        -0.00000000
  eigenvalues    EBANDS =       -90.22848001
  atomic energy  EATOM  =       197.04175453
  Solvation  Ediel_sol  =         0.00000000
  ---------------------------------------------------
  free energy    TOTEN  =       -23.95296163 eV

  energy without entropy =      -23.95296163  energy(sigma->0) =      -23.95296163


--------------------------------------------------------------------------------------------------------




--------------------------------------- Iteration      1(  18)  ---------------------------------------


    POTLOK:  cpu time    1.6811: real time    1.6851
    SETDIJ:  cpu time    0.0068: real time    0.0068
     EDDAV:  cpu time    0.9115: real time    0.9137
       DOS:  cpu time    0.0001: real time    0.0001
    CHARGE:  cpu time    0.0985: real time    0.0987
    MIXING:  cpu time    0.0472: real time    0.0473
    --------------------------------------------
      LOOP:  cpu time    2.7451: real time    2.7516

 eigenvalue-minimisations  :    32
 total energy-change (2. order) :-0.5516578E-05  (-0.2679418E-07)
 number of electron       8.0000001 magnetization 
 augmentation part        0.1900993 magnetization 

 Broyden mixing:
  rms(total) = 0.61382E-04    rms(broyden)= 0.61349E-04
  rms(prec ) = 0.85169E-04
  weight for this iteration     100.00

 eigenvalues of (default mixing * dielectric matrix)
  average eigenvalue GAMMA=   2.6260
  8.8460  5.3756  3.8926  2.5976  2.5976  2.5886  1.9423  1.2378  1.2378  0.9349
  0.9349  0.9967  0.9557

 Free energy of the ion-electron system (eV)
  ---------------------------------------------------
  alpha Z        PSCENC =         0.22444586
  Ewald energy   TEWEN  =       136.07882290
  -Hartree energ DENC   =      -291.19488520
  -exchange      EXHF   =         0.00000000
  -V(xc)+E(xc)   XCENC  =        24.92875743
  PAW double counting   =       492.60303923     -493.40503916
  entropy T*S    EENTRO =        -0.00000000
  eigenvalues    EBANDS =       -90.22986273
  atomic energy  EATOM  =       197.04175453
  Solvation  Ediel_sol  =         0.00000000
  ---------------------------------------------------
  free energy    TOTEN  =       -23.95296714 eV

  energy without entropy =      -23.95296714  energy(sigma->0) =      -23.95296714


--------------------------------------------------------------------------------------------------------




--------------------------------------- Iteration      1(  19)  ---------------------------------------


    POTLOK:  cpu time    1.6971: real time    1.7011
    SETDIJ:  cpu time    0.0064: real time    0.0064
     EDDAV:  cpu time    0.5320: real time    0.5333
       DOS:  cpu time    0.0001: real time    0.0001
    CHARGE:  cpu time    0.0949: real time    0.0952
    MIXING:  cpu time    0.0479: real time    0.0480
    --------------------------------------------
      LOOP:  cpu time    2.3784: real time    2.3841

 eigenvalue-minimisations  :    16
 total energy-change (2. order) :-0.3896584E-05  (-0.1226488E-07)
 number of electron       8.0000001 magnetization 
 augmentation part        0.1901010 magnetization 

 Broyden mixing:
  rms(total) = 0.38156E-04    rms(broyden)= 0.38155E-04
  rms(prec ) = 0.45301E-04
  weight for this iteration     100.00

 eigenvalues of (default mixing * dielectric matrix)
  average eigenvalue GAMMA=   2.5751
  8.8561  5.5420  4.1025  3.1660  2.5843  2.3061  1.8269  1.3685  1.2565  0.9654
  0.9654  0.9711  1.0701  1.0701

 Free energy of the ion-electron system (eV)
  ---------------------------------------------------
  alpha Z        PSCENC =         0.22444586
  Ewald energy   TEWEN  =       136.07882290
  -Hartree energ DENC   =      -291.19354287
  -exchange      EXHF   =         0.00000000
  -V(xc)+E(xc)   XCENC  =        24.92866156
  PAW double counting   =       492.59837359     -493.40034952
  entropy T*S    EENTRO =        -0.00000000
  eigenvalues    EBANDS =       -90.23113708
  atomic energy  EATOM  =       197.04175453
  Solvation  Ediel_sol  =         0.00000000
  ---------------------------------------------------
  free energy    TOTEN  =       -23.95297104 eV

  energy without entropy =      -23.95297104  energy(sigma->0) =      -23.95297104


--------------------------------------------------------------------------------------------------------




--------------------------------------- Iteration      1(  20)  ---------------------------------------


    POTLOK:  cpu time    1.6977: real time    1.7018
    SETDIJ:  cpu time    0.0066: real time    0.0066
     EDDAV:  cpu time    0.9221: real time    0.9243
       DOS:  cpu time    0.0001: real time    0.0001
    --------------------------------------------
      LOOP:  cpu time    2.6265: real time    2.6327

 eigenvalue-minimisations  :    32
 total energy-change (2. order) :-0.5216416E-06  (-0.1878352E-08)
 number of electron       8.0000001 magnetization 
 augmentation part        0.1901010 magnetization 

 Free energy of the ion-electron system (eV)
  ---------------------------------------------------
  alpha Z        PSCENC =         0.22444586
  Ewald energy   TEWEN  =       136.07882290
  -Hartree energ DENC   =      -291.19409767
  -exchange      EXHF   =         0.00000000
  -V(xc)+E(xc)   XCENC  =        24.92871792
  PAW double counting   =       492.61221107     -493.41418487
  entropy T*S    EENTRO =        -0.00000000
  eigenvalues    EBANDS =       -90.23064130
  atomic energy  EATOM  =       197.04175453
  Solvation  Ediel_sol  =         0.00000000
  ---------------------------------------------------
  free energy    TOTEN  =       -23.95297156 eV

  energy without entropy =      -23.95297156  energy(sigma->0) =      -23.95297156


--------------------------------------------------------------------------------------------------------




 average (electrostatic) potential at core
  the test charge radii are     0.5201  0.6991
  (the norm of the test charge is              1.0000)
       1 -41.5827       2 -41.5744       3 -41.8802       4 -41.4766       5 -57.8730



 E-fermi :  -8.7422     XC(G=0):  -0.6470     alpha+bet : -0.1952


 k-point     1 :       0.0000    0.0000    0.0000
  band No.  band energies     occupation 
      1     -17.0377      2.00000
      2      -9.7196      2.00000
      3      -9.3505      2.00000
      4      -9.0075      2.00000
      5      -0.5025      0.00000
      6       0.9392      0.00000
      7       0.9930      0.00000
      8       1.0000      0.00000


--------------------------------------------------------------------------------------------------------


 soft charge-density along one line, spin component           1
         0         1         2         3         4         5         6         7         8         9
 total charge-density along one line

 pseudopotential strength for first ion, spin component:           1
 -2.342  -4.035   0.002   0.001   0.000
 -4.035  -6.867   0.005   0.002   0.000
  0.002   0.005  -0.334   0.002   0.000
  0.001   0.002   0.002  -0.337   0.000
  0.000   0.000   0.000   0.000  -0.338
 total augmentation occupancy for first ion, spin component:           1
  3.598  -0.646  -0.409  -0.176  -0.010
 -0.646   0.131   0.076   0.032   0.000
 -0.409   0.076   0.048   0.017   0.001
 -0.176   0.032   0.017   0.017   0.000
 -0.010   0.000   0.001   0.000   0.011


------------------------ aborting loop because EDIFF is reached ----------------------------------------


    CHARGE:  cpu time    0.1011: real time    0.1013
    FORLOC:  cpu time    0.1159: real time    0.1161
    FORNL :  cpu time    0.1782: real time    0.1786
    STRESS:  cpu time    0.6727: real time    0.6743
    FORCOR:  cpu time    1.7741: real time    1.7783
    FORHAR:  cpu time    0.5991: real time    0.6005
    MIXING:  cpu time    0.0539: real time    0.0541
    OFIELD:  cpu time    0.0000: real time    0.0000

  FORCE on cell =-STRESS in cart. coord.  units (eV):
  Direction    XX          YY          ZZ          XY          YZ          ZX
  --------------------------------------------------------------------------------------
  Alpha Z     0.22445     0.22445     0.22445
  Ewald      44.18536    42.87121    49.02220     4.51387    -0.26650     4.98293
  Hartree    96.84224    96.69927    97.65313     1.30307    -0.22084     0.93517
  E(xc)     -27.41585   -27.41899   -27.40073     0.02484    -0.00391     0.01856
  Local    -199.79932  -198.76020  -204.22050    -5.03939     0.55666    -4.68783
  n-local   -16.35309   -16.30888   -16.30696     0.04811    -0.04038    -0.02352
  augment     0.10887     0.11240     0.09783    -0.00508    -0.00142    -0.01079
  Kinetic   102.68517   102.83164   101.62245    -1.37110     0.27224    -1.01116
  Fock        0.00000     0.00000     0.00000     0.00000     0.00000     0.00000
  -------------------------------------------------------------------------------------
  Total       0.47782     0.25089     0.69186    -0.52568     0.29584     0.20336
  in kB       0.70929     0.37242     1.02702    -0.78033     0.43915     0.30188
  external pressure =        0.70 kB  Pullay stress =        0.00 kB


 VOLUME and BASIS-vectors are now :
 -----------------------------------------------------------------------------
  energy-cutoff  :      400.00
  volume of cell :     1079.33
      direct lattice vectors                 reciprocal lattice vectors
    10.257728600  0.000000000  0.000000000     0.097487469  0.000000000  0.000000000
     0.000000000 10.257728600  0.000000000     0.000000000  0.097487469  0.000000000
     0.000000000  0.000000000 10.257728600     0.000000000  0.000000000  0.097487469

  length of vectors
    10.257728600 10.257728600 10.257728600     0.097487469  0.097487469  0.097487469


 FORCES acting on ions
    electron-ion (+dipol)            ewald-force                    non-local-force                 convergence-correction
 -----------------------------------------------------------------------------------------------
   -.308E+00 -.497E+02 -.209E+02   0.652E-02 0.554E+02 0.233E+02   -.193E+00 -.521E+01 -.226E+01   -.461E-05 0.438E-04 0.155E-04
   -.524E+02 0.129E+02 0.891E+00   0.585E+02 -.146E+02 -.120E+01   -.555E+01 0.126E+01 -.191E-01   0.482E-04 -.141E-04 -.628E-05
   0.222E+02 0.146E+01 0.501E+02   -.252E+02 -.162E+01 -.569E+02   0.245E+01 0.161E+00 0.561E+01   -.149E-04 0.909E-06 -.398E-04
   0.245E+02 0.334E+02 -.332E+02   -.270E+02 -.368E+02 0.366E+02   0.244E+01 0.344E+01 -.347E+01   -.197E-04 -.244E-04 0.253E-04
   0.593E+01 0.210E+01 0.214E+01   -.635E+01 -.239E+01 -.180E+01   0.999E+00 0.127E+00 0.118E+01   -.189E-04 -.748E-05 -.997E-05
 -----------------------------------------------------------------------------------------------
   -.143E+00 0.221E+00 -.104E+01   0.000E+00 0.711E-14 0.000E+00   0.143E+00 -.221E+00 0.104E+01   -.993E-05 -.139E-05 -.153E-04


 POSITION                                       TOTAL-FORCE (eV/Angst)
 -----------------------------------------------------------------------------------
      5.16915      5.78684      4.98301        -0.494353      0.578733      0.105171
      6.20395      4.53887      4.54758         0.571528     -0.485420     -0.331194
      4.72930      4.76489      3.58964        -0.529084     -0.003161     -1.167336
      4.65518      4.10115      5.25264        -0.129581      0.067585     -0.117892
      5.15311      4.79134      4.55835         0.581490     -0.157738      1.511251
 -----------------------------------------------------------------------------------
    total drift:                               -0.000259      0.000352      0.000153


--------------------------------------------------------------------------------------------------------



  FREE ENERGIE OF THE ION-ELECTRON SYSTEM (eV)
  ---------------------------------------------------
  free  energy   TOTEN  =       -23.95297156 eV

  energy  without entropy=      -23.95297156  energy(sigma->0) =      -23.95297156



--------------------------------------------------------------------------------------------------------


    POTLOK:  cpu time    1.8021: real time    1.8064


--------------------------------------------------------------------------------------------------------


     LOOP+:  cpu time   48.7264: real time   48.8486
    4ORBIT:  cpu time    0.0000: real time    0.0000

 total amount of memory used by VASP MPI-rank0   297499. kBytes
=======================================================================

   base      :      30000. kBytes
   nonlr-proj:       1249. kBytes
   fftplans  :      94700. kBytes
   grid      :     169030. kBytes
   one-center:         15. kBytes
   wavefun   :       2505. kBytes

  
  
 General timing and accounting informations for this job:
 ========================================================
  
                  Total CPU time used (sec):       50.568
                            User time (sec):       49.144
                          System time (sec):        1.424
                         Elapsed time (sec):       50.718
  
                   Maximum memory used (kb):      422640.
                   Average memory used (kb):           0.
  
                          Minor page faults:       216037
                          Major page faults:            0
                 Voluntary context switches:          138
