 vasp.5.4.4.18Apr17-6-g9f103f2a35 (build Jul 12 2018 13:43:46) complex           
 executed on             LinuxGNU date 2019.06.24  12:44:38
 running on    1 total cores
 distrk:  each k-point on    1 cores,    1 groups
 distr:  one band on NCORES_PER_BAND=   1 cores,    1 groups


--------------------------------------------------------------------------------------------------------


 INCAR:
 POTCAR:    PAW_PBE H 15Jun2001                   
 POTCAR:    PAW_PBE C 08Apr2002                   
 POTCAR:    PAW_PBE H 15Jun2001                   
   VRHFIN =H: ultrasoft test                                                    
   LEXCH  = PE                                                                  
   EATOM  =    12.4884 eV,    0.9179 Ry                                         
                                                                                
   TITEL  = PAW_PBE H 15Jun2001                                                 
   LULTRA =        F    use ultrasoft PP ?                                      
   IUNSCR =        0    unscreen: 0-lin 1-nonlin 2-no                           
   RPACOR =    0.000    partial core radius                                     
   POMASS =    1.000; ZVAL   =    1.000    mass and valenz                      
   RCORE  =    1.100    outmost cutoff radius                                   
   RWIGS  =    0.700; RWIGS  =    0.370    wigner-seitz radius (au A)           
   ENMAX  =  250.000; ENMIN  =  200.000 eV                                      
   RCLOC  =    0.701    cutoff for local pot                                    
   LCOR   =        T    correct aug charges                                     
   LPAW   =        T    paw PP                                                  
   EAUG   =  400.000                                                            
   RMAX   =    1.123    core radius for proj-oper                               
   RAUG   =    1.200    factor for augmentation sphere                          
   RDEP   =    1.112    radius for radial grids                                 
   RDEPT  =    0.926    core radius for aug-charge                              
                                                                                
   Atomic configuration                                                         
    2 entries                                                                   
     n  l   j            E        occ.                                          
     1  0  0.50        -6.4927   1.0000                                         
     2  1  0.50        -3.4015   0.0000                                         
   Description                                                                  
     l       E           TYP  RCUT    TYP  RCUT                                 
     0     -6.4927494     23  1.100                                             
     0      6.8029130     23  1.100                                             
     1     -4.0817478     23  1.100                                             
  local pseudopotential read in
  atomic valenz-charges read in
  non local Contribution for L=           0  read in
    real space projection operators read in
  non local Contribution for L=           0  read in
    real space projection operators read in
  non local Contribution for L=           1  read in
    real space projection operators read in
    PAW grid and wavefunctions read in

   number of l-projection  operators is LMAX  =           3
   number of lm-projection operators is LMMAX =           5

 POTCAR:    PAW_PBE C 08Apr2002                   
   VRHFIN =C: s2p2                                                              
   LEXCH  = PE                                                                  
   EATOM  =   147.1560 eV,   10.8157 Ry                                         
                                                                                
   TITEL  = PAW_PBE C 08Apr2002                                                 
   LULTRA =        F    use ultrasoft PP ?                                      
   IUNSCR =        1    unscreen: 0-lin 1-nonlin 2-no                           
   RPACOR =    1.200    partial core radius                                     
   POMASS =   12.011; ZVAL   =    4.000    mass and valenz                      
   RCORE  =    1.500    outmost cutoff radius                                   
   RWIGS  =    1.630; RWIGS  =    0.863    wigner-seitz radius (au A)           
   ENMAX  =  400.000; ENMIN  =  300.000 eV                                      
   ICORE  =        2    local potential                                         
   LCOR   =        T    correct aug charges                                     
   LPAW   =        T    paw PP                                                  
   EAUG   =  644.873                                                            
   DEXC   =    0.000                                                            
   RMAX   =    1.529    core radius for proj-oper                               
   RAUG   =    1.300    factor for augmentation sphere                          
   RDEP   =    1.501    radius for radial grids                                 
   RDEPT  =    1.300    core radius for aug-charge                              
                                                                                
   Atomic configuration                                                         
    4 entries                                                                   
     n  l   j            E        occ.                                          
     1  0  0.50      -273.3789   2.0000                                         
     2  0  0.50       -13.7508   2.0000                                         
     2  1  0.50        -5.2854   2.0000                                         
     3  2  1.50        -5.4423   0.0000                                         
   Description                                                                  
     l       E           TYP  RCUT    TYP  RCUT                                 
     0    -13.7508458     23  1.200                                             
     0     -8.2022199     23  1.200                                             
     1     -5.2854383     23  1.500                                             
     1     34.0145650     23  1.500                                             
     2     -5.4423304      7  1.500                                             
  local pseudopotential read in
  partial core-charges read in
  partial kinetic energy density read in
  atomic valenz-charges read in
  non local Contribution for L=           0  read in
    real space projection operators read in
  non local Contribution for L=           0  read in
    real space projection operators read in
  non local Contribution for L=           1  read in
    real space projection operators read in
  non local Contribution for L=           1  read in
    real space projection operators read in
    PAW grid and wavefunctions read in

   number of l-projection  operators is LMAX  =           4
   number of lm-projection operators is LMMAX =           8


 ----------------------------------------------------------------------------- 
|                                                                             |
|  ADVICE TO THIS USER RUNNING 'VASP/VAMP'   (HEAR YOUR MASTER'S VOICE ...):  |
|                                                                             |
|      You have a (more or less) 'small supercell' and for smaller cells      |
|      it is recommended  to use the reciprocal-space projection scheme!      |
|      The real space optimization is not  efficient for small cells and it   |
|      is also less accurate ...                                              |
|      Therefore set LREAL=.FALSE. in the  INCAR file                         |
|                                                                             |
 ----------------------------------------------------------------------------- 

 Optimization of the real space projectors (new method)

 maximal supplied QI-value         = 34.20
 optimisation between [QCUT,QGAM] = [  9.92, 20.18] = [ 27.55,114.04] Ry 
 Optimized for a Real-space Cutoff    1.34 Angstroem

   l    n(q)    QCUT    max X(q) W(low)/X(q) W(high)/X(q)  e(spline) 
   0      8     9.919    19.460    0.16E-03    0.20E-03    0.36E-06
   0      8     9.919    12.209    0.16E-03    0.20E-03    0.35E-06
   1      8     9.919     4.655    0.19E-03    0.46E-03    0.40E-06
 Optimization of the real space projectors (new method)

 maximal supplied QI-value         = 25.13
 optimisation between [QCUT,QGAM] = [ 10.05, 20.36] = [ 28.30,116.06] Ry 
 Optimized for a Real-space Cutoff    1.51 Angstroem

   l    n(q)    QCUT    max X(q) W(low)/X(q) W(high)/X(q)  e(spline) 
   0      9    10.053   115.676    0.19E-03    0.21E-03    0.38E-06
   0      9    10.053    87.132    0.19E-03    0.21E-03    0.38E-06
   1      9    10.053     4.429    0.87E-04    0.11E-03    0.39E-06
   1      9    10.053     2.733    0.59E-04    0.62E-04    0.43E-06
  PAW_PBE H 15Jun2001                   :
 energy of atom  1       EATOM=  -12.4884
 kinetic energy error for atom=    0.0098 (will be added to EATOM!!)
  PAW_PBE C 08Apr2002                   :
 energy of atom  2       EATOM= -147.1560
 kinetic energy error for atom=    0.0288 (will be added to EATOM!!)


 POSCAR: POSCAR file written by OVITO            
  positions in cartesian coordinates
  No initial velocities read in
 exchange correlation table for  LEXCH =        8
   RHO(1)=    0.500       N(1)  =     2000
   RHO(2)=  100.500       N(2)  =     4000



--------------------------------------------------------------------------------------------------------


 ion  position               nearest neighbor table
   1  0.562  0.515  0.522-   5 1.13
   2  0.540  0.509  0.357-   5 1.09
   3  0.397  0.487  0.461-   5 1.10
   4  0.524  0.360  0.432-   5 1.12
   5  0.502  0.467  0.446-   2 1.09   3 1.10   4 1.12   1 1.13


IMPORTANT INFORMATION: All symmetrisations will be switched off!
NOSYMM: (Re-)initialisation of all symmetry stuff for point group C_1.




Automatic generation of k-mesh.
 generate k-points for:    1    1    1
Space group operators:
 irot       det(A)        alpha          n_x          n_y          n_z        tau_x        tau_y        tau_z
    1     1.000000     0.000000     1.000000     0.000000     0.000000     0.000000     0.000000     0.000000
 
 Subroutine IBZKPT returns following result:
 ===========================================
 
 Found      1 irreducible k-points:
 
 Following reciprocal coordinates:
            Coordinates               Weight
  0.000000  0.000000  0.000000      1.000000
 
 Following cartesian coordinates:
            Coordinates               Weight
  0.000000  0.000000  0.000000      1.000000
 


--------------------------------------------------------------------------------------------------------




 Dimension of arrays:
   k-points           NKPTS =      1   k-points in BZ     NKDIM =      1   number of bands    NBANDS=      8
   number of dos      NEDOS =    301   number of ions     NIONS =      5
   non local maximal  LDIM  =      4   non local SUM 2l+1 LMDIM =      8
   total plane-waves  NPLWV = 343000
   max r-space proj   IRMAX =   4586   max aug-charges    IRDMAX=   3922
   dimension x,y,z NGX =    70 NGY =   70 NGZ =   70
   dimension x,y,z NGXF=   140 NGYF=  140 NGZF=  140
   support grid    NGXF=   140 NGYF=  140 NGZF=  140
   ions per type =               4   1
   NGX,Y,Z   is equivalent  to a cutoff of  11.45, 11.34, 11.16 a.u.
   NGXF,Y,Z  is equivalent  to a cutoff of  22.91, 22.68, 22.31 a.u.

 SYSTEM =  unknown system                          
 POSCAR =  POSCAR file written by OVITO            

 Startparameter for this run:
   NWRITE =      2    write-flag & timer
   PREC   = a         normal or accurate (medium, high low for compatibility)
   ISTART =      0    job   : 0-new  1-cont  2-samecut
   ICHARG =      2    charge: 1-file 2-atom 10-const
   ISPIN  =      1    spin polarized calculation?
   LNONCOLLINEAR =      F non collinear calculations
   LSORBIT =      F    spin-orbit coupling
   INIWAV =      1    electr: 0-lowe 1-rand  2-diag
   LASPH  =      F    aspherical Exc in radial PAW
   METAGGA=      F    non-selfconsistent MetaGGA calc.

 Electronic Relaxation 1
   ENCUT  =  400.0 eV  29.40 Ry    5.42 a.u.  16.57 16.73 17.01*2*pi/ulx,y,z
   ENINI  =  400.0     initial cutoff
   ENAUG  =  644.9 eV  augmentation charge cutoff
   NELM   =    120;   NELMIN=  4; NELMDL= -5     # of ELM steps 
   EDIFF  = 0.1E-05   stopping-criterion for ELM
   LREAL  =      T    real-space projection
   NLSPLINE    = F    spline interpolate recip. space projectors
   LCOMPAT=      F    compatible to vasp.4.4
   GGA_COMPAT  = T    GGA compatible to vasp.4.4-vasp.4.6
   LMAXPAW     = -100 max onsite density
   LMAXMIX     =    2 max onsite mixed and CHGCAR
   VOSKOWN=      0    Vosko Wilk Nusair interpolation
   ROPT   =   -0.00025  -0.00025
 Ionic relaxation
   EDIFFG = 0.1E-04   stopping-criterion for IOM
   NSW    =      0    number of steps for IOM
   NBLOCK =      1;   KBLOCK =      1    inner block; outer block 
   IBRION =     -1    ionic relax: 0-MD 1-quasi-New 2-CG
   NFREE  =      0    steps in history (QN), initial steepest desc. (CG)
   ISIF   =      2    stress and relaxation
   IWAVPR =     10    prediction:  0-non 1-charg 2-wave 3-comb
   ISYM   =      0    0-nonsym 1-usesym 2-fastsym
   LCORR  =      T    Harris-Foulkes like correction to forces

   POTIM  = 0.5000    time-step for ionic-motion
   TEIN   =    0.0    initial temperature
   TEBEG  =    0.0;   TEEND  =   0.0 temperature during run
   SMASS  =  -3.00    Nose mass-parameter (am)
   estimated Nose-frequenzy (Omega)   =  0.10E-29 period in steps =****** mass=  -0.236E-26a.u.
   SCALEE = 1.0000    scale energy and forces
   NPACO  =    256;   APACO  = 16.0  distance and # of slots for P.C.
   PSTRESS=    0.0 pullay stress

  Mass of Ions in am
   POMASS =   1.00 12.01
  Ionic Valenz
   ZVAL   =   1.00  4.00
  Atomic Wigner-Seitz radii
   RWIGS  =  -1.00 -1.00
  virtual crystal weights 
   VCA    =   1.00  1.00
   NELECT =       8.0000    total number of electrons
   NUPDOWN=      -1.0000    fix difference up-down

 DOS related values:
   EMIN   =  10.00;   EMAX   =-10.00  energy-range for DOS
   EFERMI =   0.00
   ISMEAR =     0;   SIGMA  =   0.05  broadening in eV -4-tet -1-fermi 0-gaus

 Electronic relaxation 2 (details)
   IALGO  =     38    algorithm
   LDIAG  =      T    sub-space diagonalisation (order eigenvalues)
   LSUBROT=      F    optimize rotation matrix (better conditioning)
   TURBO    =      0    0=normal 1=particle mesh
   IRESTART =      0    0=no restart 2=restart with 2 vectors
   NREBOOT  =      0    no. of reboots
   NMIN     =      0    reboot dimension
   EREF     =   0.00    reference energy to select bands
   IMIX   =      4    mixing-type and parameters
     AMIX     =   0.40;   BMIX     =  1.00
     AMIX_MAG =   1.60;   BMIX_MAG =  1.00
     AMIN     =   0.10
     WC   =   100.;   INIMIX=   1;  MIXPRE=   1;  MAXMIX= -45

 Intra band minimization:
   WEIMIN = 0.0000     energy-eigenvalue tresh-hold
   EBREAK =  0.31E-07  absolut break condition
   DEPER  =   0.30     relativ break condition  

   TIME   =   0.40     timestep for ELM

  volume/ion in A,a.u.               =     217.47      1467.53
  Fermi-wavevector in a.u.,A,eV,Ry     =   0.318408  0.601705  1.379412  0.101384
  Thomas-Fermi vector in A             =   1.203223

 Write flags
   LWAVE        =      F    write WAVECAR
   LDOWNSAMPLE  =      F    k-point downsampling of WAVECAR
   LCHARG       =      F    write CHGCAR
   LVTOT        =      F    write LOCPOT, total local potential
   LVHAR        =      F    write LOCPOT, Hartree potential only
   LELF         =      F    write electronic localiz. function (ELF)
   LORBIT       =      0    0 simple, 1 ext, 2 COOP (PROOUT), +10 PAW based schemes


 Dipole corrections
   LMONO  =      F    monopole corrections only (constant potential shift)
   LDIPOL =      F    correct potential (dipole corrections)
   IDIPOL =      0    1-x, 2-y, 3-z, 4-all directions 
   EPSILON=  1.0000000 bulk dielectric constant

 Exchange correlation treatment:
   GGA     =    --    GGA type
   LEXCH   =     8    internal setting for exchange type
   VOSKOWN=      0    Vosko Wilk Nusair interpolation
   LHFCALC =     F    Hartree Fock is set to
   LHFONE  =     F    Hartree Fock one center treatment
   AEXX    =    0.0000 exact exchange contribution

 Linear response parameters
   LEPSILON=     F    determine dielectric tensor
   LRPA    =     F    only Hartree local field effects (RPA)
   LNABLA  =     F    use nabla operator in PAW spheres
   LVEL    =     F    velocity operator in full k-point grid
   LINTERFAST=   F  fast interpolation
   KINTER  =     0    interpolate to denser k-point grid
   CSHIFT  =0.1000    complex shift for real part using Kramers Kronig
   OMEGAMAX=  -1.0    maximum frequency
   DEG_THRESHOLD= 0.2000000E-02 threshold for treating states as degnerate
   RTIME   =   -0.100 relaxation time in fs
  (WPLASMAI=    0.000 imaginary part of plasma frequency in eV, 0.658/RTIME)
   DFIELD  = 0.0000000 0.0000000 0.0000000 field for delta impulse in time

 Orbital magnetization related:
   ORBITALMAG=     F  switch on orbital magnetization
   LCHIMAG   =     F  perturbation theory with respect to B field
   DQ        =  0.001000  dq finite difference perturbation B field
   LLRAUG    =     F  two centre corrections for induced B field



--------------------------------------------------------------------------------------------------------


 Static calculation
 charge density and potential will be updated during run
 non-spin polarized calculation
 Variant of blocked Davidson
 Davidson routine will perform the subspace rotation
 perform sub-space diagonalisation
    after iterative eigenvector-optimisation
 modified Broyden-mixing scheme, WC =      100.0
 initial mixing is a Kerker type mixing with AMIX =  0.4000 and BMIX =      1.0000
 Hartree-type preconditioning will be used
 using additional bands            4
 real space projection scheme for non local part
 use partial core corrections
 calculate Harris-corrections to forces   (improved forces if not selfconsistent)
 use gradient corrections 
 use of overlap-Matrix (Vanderbilt PP)
 Gauss-broadening in eV      SIGMA  =   0.05


--------------------------------------------------------------------------------------------------------


  energy-cutoff  :      400.00
  volume of cell :     1087.33
      direct lattice vectors                 reciprocal lattice vectors
    10.160926800  0.000000000  0.000000000     0.098416219 -0.000900045 -0.000512992
     0.093834400 10.260411300  0.000000000     0.000000000  0.097461980 -0.001306014
     0.055641600  0.139757600 10.429487300     0.000000000  0.000000000  0.095881990

  length of vectors
    10.160926800 10.260840362 10.430572061     0.098421672  0.097470730  0.095881990



 k-points in units of 2pi/SCALE and weight: read from INCAR                         
   0.00000000  0.00000000  0.00000000       1.000

 k-points in reciprocal lattice and weights: read from INCAR                         
   0.00000000  0.00000000  0.00000000       1.000

 position of ions in fractional coordinates (direct lattice) 
   0.56190269  0.51519548  0.52227121
   0.53962052  0.50879150  0.35654110
   0.39656320  0.48686354  0.46100647
   0.52407191  0.36025561  0.43230898
   0.50172135  0.46678508  0.44571808

 position of ions in cartesian coordinates  (Angst):
   5.78685520  5.35910890  5.44702100
   5.55062530  5.27023940  3.71854090
   4.10078530  5.05984930  4.80806110
   5.38291500  3.75678920  4.50876100
   5.16655490  4.85169940  4.64861110



--------------------------------------------------------------------------------------------------------


 k-point  1 :   0.0000 0.0000 0.0000  plane waves:   19743

 maximum and minimum number of plane-waves per node :     19743    19743

 maximum number of plane-waves:     19743
 maximum index in each direction: 
   IXMAX=   16   IYMAX=   16   IZMAX=   17
   IXMIN=  -16   IYMIN=  -16   IZMIN=  -17


 serial   3D FFT for wavefunctions
 parallel 3D FFT for charge:
    minimum data exchange during FFTs selected (reduces bandwidth)


 total amount of memory used by VASP MPI-rank0   297513. kBytes
=======================================================================

   base      :      30000. kBytes
   nonlr-proj:       1238. kBytes
   fftplans  :      94700. kBytes
   grid      :     169030. kBytes
   one-center:         15. kBytes
   wavefun   :       2530. kBytes

     INWAV:  cpu time    0.0000: real time    0.0000
 Broyden mixing: mesh for mixing (old mesh)
   NGX = 33   NGY = 33   NGZ = 35
  (NGX  =140   NGY  =140   NGZ  =140)
  gives a total of  38115 points

 initial charge density was supplied:
 charge density of overlapping atoms calculated
 number of electron       8.0000000 magnetization 
 keeping initial charge density in first step


--------------------------------------------------------------------------------------------------------


 Maximum index for non-local projection operator         4397
 Maximum index for augmentation-charges         3607 (set IRDMAX)


--------------------------------------------------------------------------------------------------------


 First call to EWALD:  gamma=   0.172
 Maximum number of real-space cells 3x 3x 3
 Maximum number of reciprocal cells 3x 3x 3

    FEWALD:  cpu time    0.0007: real time    0.0007


--------------------------------------- Iteration      1(   1)  ---------------------------------------


    POTLOK:  cpu time    1.9405: real time    1.9453
    SETDIJ:  cpu time    0.0064: real time    0.0064
     EDDAV:  cpu time    0.5143: real time    0.5155
       DOS:  cpu time    0.0002: real time    0.0002
    --------------------------------------------
      LOOP:  cpu time    2.4613: real time    2.4674

 eigenvalue-minimisations  :    16
 total energy-change (2. order) : 0.5654863E+02  (-0.1488247E+03)
 number of electron       8.0000000 magnetization 
 augmentation part        8.0000000 magnetization 

 Free energy of the ion-electron system (eV)
  ---------------------------------------------------
  alpha Z        PSCENC =         0.22279434
  Ewald energy   TEWEN  =       129.19021919
  -Hartree energ DENC   =      -245.77569373
  -exchange      EXHF   =         0.00000000
  -V(xc)+E(xc)   XCENC  =        21.93665862
  PAW double counting   =       117.05815612     -117.66307307
  entropy T*S    EENTRO =        -0.00000000
  eigenvalues    EBANDS =       -45.46218446
  atomic energy  EATOM  =       197.04175453
  Solvation  Ediel_sol  =         0.00000000
  ---------------------------------------------------
  free energy    TOTEN  =        56.54863155 eV

  energy without entropy =       56.54863155  energy(sigma->0) =       56.54863155


--------------------------------------------------------------------------------------------------------




--------------------------------------- Iteration      1(   2)  ---------------------------------------


     EDDAV:  cpu time    0.9161: real time    0.9184
       DOS:  cpu time    0.0001: real time    0.0001
    --------------------------------------------
      LOOP:  cpu time    0.9162: real time    0.9185

 eigenvalue-minimisations  :    32
 total energy-change (2. order) :-0.6772133E+02  (-0.6772133E+02)
 number of electron       8.0000000 magnetization 
 augmentation part        8.0000000 magnetization 

 Free energy of the ion-electron system (eV)
  ---------------------------------------------------
  alpha Z        PSCENC =         0.22279434
  Ewald energy   TEWEN  =       129.19021919
  -Hartree energ DENC   =      -245.77569373
  -exchange      EXHF   =         0.00000000
  -V(xc)+E(xc)   XCENC  =        21.93665862
  PAW double counting   =       117.05815612     -117.66307307
  entropy T*S    EENTRO =        -0.00000000
  eigenvalues    EBANDS =      -113.18351560
  atomic energy  EATOM  =       197.04175453
  Solvation  Ediel_sol  =         0.00000000
  ---------------------------------------------------
  free energy    TOTEN  =       -11.17269959 eV

  energy without entropy =      -11.17269959  energy(sigma->0) =      -11.17269959


--------------------------------------------------------------------------------------------------------




--------------------------------------- Iteration      1(   3)  ---------------------------------------


     EDDAV:  cpu time    0.5129: real time    0.5142
       DOS:  cpu time    0.0001: real time    0.0001
    --------------------------------------------
      LOOP:  cpu time    0.5130: real time    0.5142

 eigenvalue-minimisations  :    16
 total energy-change (2. order) :-0.1494764E+02  (-0.1494764E+02)
 number of electron       8.0000000 magnetization 
 augmentation part        8.0000000 magnetization 

 Free energy of the ion-electron system (eV)
  ---------------------------------------------------
  alpha Z        PSCENC =         0.22279434
  Ewald energy   TEWEN  =       129.19021919
  -Hartree energ DENC   =      -245.77569373
  -exchange      EXHF   =         0.00000000
  -V(xc)+E(xc)   XCENC  =        21.93665862
  PAW double counting   =       117.05815612     -117.66307307
  entropy T*S    EENTRO =        -0.00000000
  eigenvalues    EBANDS =      -128.13115561
  atomic energy  EATOM  =       197.04175453
  Solvation  Ediel_sol  =         0.00000000
  ---------------------------------------------------
  free energy    TOTEN  =       -26.12033961 eV

  energy without entropy =      -26.12033961  energy(sigma->0) =      -26.12033961


--------------------------------------------------------------------------------------------------------




--------------------------------------- Iteration      1(   4)  ---------------------------------------


     EDDAV:  cpu time    0.9577: real time    0.9600
       DOS:  cpu time    0.0001: real time    0.0001
    --------------------------------------------
      LOOP:  cpu time    0.9579: real time    0.9601

 eigenvalue-minimisations  :    32
 total energy-change (2. order) :-0.1145390E+01  (-0.1145390E+01)
 number of electron       8.0000000 magnetization 
 augmentation part        8.0000000 magnetization 

 Free energy of the ion-electron system (eV)
  ---------------------------------------------------
  alpha Z        PSCENC =         0.22279434
  Ewald energy   TEWEN  =       129.19021919
  -Hartree energ DENC   =      -245.77569373
  -exchange      EXHF   =         0.00000000
  -V(xc)+E(xc)   XCENC  =        21.93665862
  PAW double counting   =       117.05815612     -117.66307307
  entropy T*S    EENTRO =        -0.00000000
  eigenvalues    EBANDS =      -129.27654569
  atomic energy  EATOM  =       197.04175453
  Solvation  Ediel_sol  =         0.00000000
  ---------------------------------------------------
  free energy    TOTEN  =       -27.26572968 eV

  energy without entropy =      -27.26572968  energy(sigma->0) =      -27.26572968


--------------------------------------------------------------------------------------------------------




--------------------------------------- Iteration      1(   5)  ---------------------------------------


     EDDAV:  cpu time    0.9417: real time    0.9439
       DOS:  cpu time    0.0001: real time    0.0001
    CHARGE:  cpu time    0.1097: real time    0.1100
    MIXING:  cpu time    0.0371: real time    0.0372
    --------------------------------------------
      LOOP:  cpu time    1.0886: real time    1.0912

 eigenvalue-minimisations  :    32
 total energy-change (2. order) :-0.8062263E-03  (-0.8062263E-03)
 number of electron       7.9999997 magnetization 
 augmentation part        0.2203847 magnetization 

 Broyden mixing:
  rms(total) = 0.84708E+00    rms(broyden)= 0.84687E+00
  rms(prec ) = 0.11868E+01
  weight for this iteration     100.00

 Free energy of the ion-electron system (eV)
  ---------------------------------------------------
  alpha Z        PSCENC =         0.22279434
  Ewald energy   TEWEN  =       129.19021919
  -Hartree energ DENC   =      -245.77569373
  -exchange      EXHF   =         0.00000000
  -V(xc)+E(xc)   XCENC  =        21.93665862
  PAW double counting   =       117.05815612     -117.66307307
  entropy T*S    EENTRO =        -0.00000000
  eigenvalues    EBANDS =      -129.27735192
  atomic energy  EATOM  =       197.04175453
  Solvation  Ediel_sol  =         0.00000000
  ---------------------------------------------------
  free energy    TOTEN  =       -27.26653591 eV

  energy without entropy =      -27.26653591  energy(sigma->0) =      -27.26653591


--------------------------------------------------------------------------------------------------------




--------------------------------------- Iteration      1(   6)  ---------------------------------------


    POTLOK:  cpu time    1.8170: real time    1.8213
    SETDIJ:  cpu time    0.0063: real time    0.0063
     EDDAV:  cpu time    0.7115: real time    0.7132
       DOS:  cpu time    0.0001: real time    0.0001
    CHARGE:  cpu time    0.0938: real time    0.0940
    MIXING:  cpu time    0.0417: real time    0.0418
    --------------------------------------------
      LOOP:  cpu time    2.6705: real time    2.6768

 eigenvalue-minimisations  :    24
 total energy-change (2. order) : 0.2733179E+01  (-0.8546344E+00)
 number of electron       7.9999997 magnetization 
 augmentation part        0.1930171 magnetization 

 Broyden mixing:
  rms(total) = 0.43353E+00    rms(broyden)= 0.43342E+00
  rms(prec ) = 0.53923E+00
  weight for this iteration     100.00

 eigenvalues of (default mixing * dielectric matrix)
  average eigenvalue GAMMA=   1.1906
  1.1906

 Free energy of the ion-electron system (eV)
  ---------------------------------------------------
  alpha Z        PSCENC =         0.22279434
  Ewald energy   TEWEN  =       129.19021919
  -Hartree energ DENC   =      -264.96776222
  -exchange      EXHF   =         0.00000000
  -V(xc)+E(xc)   XCENC  =        23.10057511
  PAW double counting   =       233.94628535     -234.71877632
  entropy T*S    EENTRO =        -0.00000000
  eigenvalues    EBANDS =      -108.34844713
  atomic energy  EATOM  =       197.04175453
  Solvation  Ediel_sol  =         0.00000000
  ---------------------------------------------------
  free energy    TOTEN  =       -24.53335715 eV

  energy without entropy =      -24.53335715  energy(sigma->0) =      -24.53335715


--------------------------------------------------------------------------------------------------------




--------------------------------------- Iteration      1(   7)  ---------------------------------------


    POTLOK:  cpu time    1.8671: real time    1.8715
    SETDIJ:  cpu time    0.0062: real time    0.0062
     EDDAV:  cpu time    0.9293: real time    0.9315
       DOS:  cpu time    0.0001: real time    0.0001
    CHARGE:  cpu time    0.1056: real time    0.1058
    MIXING:  cpu time    0.0404: real time    0.0405
    --------------------------------------------
      LOOP:  cpu time    2.9486: real time    2.9556

 eigenvalue-minimisations  :    32
 total energy-change (2. order) : 0.4516582E+00  (-0.6557762E-01)
 number of electron       7.9999997 magnetization 
 augmentation part        0.1850784 magnetization 

 Broyden mixing:
  rms(total) = 0.22254E+00    rms(broyden)= 0.22250E+00
  rms(prec ) = 0.27271E+00
  weight for this iteration     100.00

 eigenvalues of (default mixing * dielectric matrix)
  average eigenvalue GAMMA=   1.6948
  1.2406  2.1490

 Free energy of the ion-electron system (eV)
  ---------------------------------------------------
  alpha Z        PSCENC =         0.22279434
  Ewald energy   TEWEN  =       129.19021919
  -Hartree energ DENC   =      -274.54847194
  -exchange      EXHF   =         0.00000000
  -V(xc)+E(xc)   XCENC  =        23.82546095
  PAW double counting   =       353.16683199     -353.96367402
  entropy T*S    EENTRO =        -0.00000000
  eigenvalues    EBANDS =       -99.01661399
  atomic energy  EATOM  =       197.04175453
  Solvation  Ediel_sol  =         0.00000000
  ---------------------------------------------------
  free energy    TOTEN  =       -24.08169895 eV

  energy without entropy =      -24.08169895  energy(sigma->0) =      -24.08169895


--------------------------------------------------------------------------------------------------------




--------------------------------------- Iteration      1(   8)  ---------------------------------------


    POTLOK:  cpu time    1.8418: real time    1.8461
    SETDIJ:  cpu time    0.0066: real time    0.0066
     EDDAV:  cpu time    0.9522: real time    0.9545
       DOS:  cpu time    0.0001: real time    0.0001
    CHARGE:  cpu time    0.1008: real time    0.1010
    MIXING:  cpu time    0.0371: real time    0.0371
    --------------------------------------------
      LOOP:  cpu time    2.9385: real time    2.9455

 eigenvalue-minimisations  :    32
 total energy-change (2. order) : 0.1601922E+00  (-0.1797335E-01)
 number of electron       7.9999997 magnetization 
 augmentation part        0.1826129 magnetization 

 Broyden mixing:
  rms(total) = 0.26665E-01    rms(broyden)= 0.26639E-01
  rms(prec ) = 0.53849E-01
  weight for this iteration     100.00

 eigenvalues of (default mixing * dielectric matrix)
  average eigenvalue GAMMA=   1.5408
  2.1571  1.1017  1.3634

 Free energy of the ion-electron system (eV)
  ---------------------------------------------------
  alpha Z        PSCENC =         0.22279434
  Ewald energy   TEWEN  =       129.19021919
  -Hartree energ DENC   =      -281.47506976
  -exchange      EXHF   =         0.00000000
  -V(xc)+E(xc)   XCENC  =        24.44350987
  PAW double counting   =       459.75746436     -460.53961275
  entropy T*S    EENTRO =        -0.00000000
  eigenvalues    EBANDS =       -92.56256655
  atomic energy  EATOM  =       197.04175453
  Solvation  Ediel_sol  =         0.00000000
  ---------------------------------------------------
  free energy    TOTEN  =       -23.92150678 eV

  energy without entropy =      -23.92150678  energy(sigma->0) =      -23.92150678


--------------------------------------------------------------------------------------------------------




--------------------------------------- Iteration      1(   9)  ---------------------------------------


    POTLOK:  cpu time    1.8484: real time    1.8528
    SETDIJ:  cpu time    0.0062: real time    0.0063
     EDDAV:  cpu time    0.5204: real time    0.5216
       DOS:  cpu time    0.0001: real time    0.0001
    CHARGE:  cpu time    0.0995: real time    0.0997
    MIXING:  cpu time    0.0427: real time    0.0428
    --------------------------------------------
      LOOP:  cpu time    2.5173: real time    2.5233

 eigenvalue-minimisations  :    16
 total energy-change (2. order) : 0.6688383E-02  (-0.3258209E-03)
 number of electron       7.9999997 magnetization 
 augmentation part        0.1821335 magnetization 

 Broyden mixing:
  rms(total) = 0.16158E-01    rms(broyden)= 0.16155E-01
  rms(prec ) = 0.36234E-01
  weight for this iteration     100.00

 eigenvalues of (default mixing * dielectric matrix)
  average eigenvalue GAMMA=   1.8836
  2.8840  2.4716  0.9923  1.1867

 Free energy of the ion-electron system (eV)
  ---------------------------------------------------
  alpha Z        PSCENC =         0.22279434
  Ewald energy   TEWEN  =       129.19021919
  -Hartree energ DENC   =      -282.73036704
  -exchange      EXHF   =         0.00000000
  -V(xc)+E(xc)   XCENC  =        24.51000724
  PAW double counting   =       457.16789084     -457.94817748
  entropy T*S    EENTRO =        -0.00000000
  eigenvalues    EBANDS =       -91.36894001
  atomic energy  EATOM  =       197.04175453
  Solvation  Ediel_sol  =         0.00000000
  ---------------------------------------------------
  free energy    TOTEN  =       -23.91481839 eV

  energy without entropy =      -23.91481839  energy(sigma->0) =      -23.91481839


--------------------------------------------------------------------------------------------------------




--------------------------------------- Iteration      1(  10)  ---------------------------------------


    POTLOK:  cpu time    1.7557: real time    1.7599
    SETDIJ:  cpu time    0.0063: real time    0.0063
     EDDAV:  cpu time    0.5174: real time    0.5186
       DOS:  cpu time    0.0001: real time    0.0001
    CHARGE:  cpu time    0.1012: real time    0.1014
    MIXING:  cpu time    0.0433: real time    0.0434
    --------------------------------------------
      LOOP:  cpu time    2.4240: real time    2.4298

 eigenvalue-minimisations  :    16
 total energy-change (2. order) : 0.9266361E-02  (-0.5784321E-03)
 number of electron       7.9999997 magnetization 
 augmentation part        0.1818816 magnetization 

 Broyden mixing:
  rms(total) = 0.68278E-02    rms(broyden)= 0.68265E-02
  rms(prec ) = 0.16359E-01
  weight for this iteration     100.00

 eigenvalues of (default mixing * dielectric matrix)
  average eigenvalue GAMMA=   1.8974
  3.1229  1.0084  1.1977  2.0791  2.0791

 Free energy of the ion-electron system (eV)
  ---------------------------------------------------
  alpha Z        PSCENC =         0.22279434
  Ewald energy   TEWEN  =       129.19021919
  -Hartree energ DENC   =      -284.38630175
  -exchange      EXHF   =         0.00000000
  -V(xc)+E(xc)   XCENC  =        24.58467282
  PAW double counting   =       448.49607694     -449.27251413
  entropy T*S    EENTRO =        -0.00000000
  eigenvalues    EBANDS =       -89.78225398
  atomic energy  EATOM  =       197.04175453
  Solvation  Ediel_sol  =         0.00000000
  ---------------------------------------------------
  free energy    TOTEN  =       -23.90555203 eV

  energy without entropy =      -23.90555203  energy(sigma->0) =      -23.90555203


--------------------------------------------------------------------------------------------------------




--------------------------------------- Iteration      1(  11)  ---------------------------------------


    POTLOK:  cpu time    1.6708: real time    1.6748
    SETDIJ:  cpu time    0.0068: real time    0.0068
     EDDAV:  cpu time    0.5394: real time    0.5407
       DOS:  cpu time    0.0001: real time    0.0001
    CHARGE:  cpu time    0.0964: real time    0.0966
    MIXING:  cpu time    0.0403: real time    0.0404
    --------------------------------------------
      LOOP:  cpu time    2.3537: real time    2.3593

 eigenvalue-minimisations  :    16
 total energy-change (2. order) :-0.6618852E-02  (-0.2443224E-03)
 number of electron       7.9999997 magnetization 
 augmentation part        0.1815952 magnetization 

 Broyden mixing:
  rms(total) = 0.57093E-02    rms(broyden)= 0.57087E-02
  rms(prec ) = 0.10016E-01
  weight for this iteration     100.00

 eigenvalues of (default mixing * dielectric matrix)
  average eigenvalue GAMMA=   2.1160
  4.3721  2.8539  2.2123  1.2146  1.0216  1.0216

 Free energy of the ion-electron system (eV)
  ---------------------------------------------------
  alpha Z        PSCENC =         0.22279434
  Ewald energy   TEWEN  =       129.19021919
  -Hartree energ DENC   =      -285.22969260
  -exchange      EXHF   =         0.00000000
  -V(xc)+E(xc)   XCENC  =        24.61912282
  PAW double counting   =       451.32831879     -452.10538633
  entropy T*S    EENTRO =        -0.00000000
  eigenvalues    EBANDS =       -88.97930163
  atomic energy  EATOM  =       197.04175453
  Solvation  Ediel_sol  =         0.00000000
  ---------------------------------------------------
  free energy    TOTEN  =       -23.91217088 eV

  energy without entropy =      -23.91217088  energy(sigma->0) =      -23.91217088


--------------------------------------------------------------------------------------------------------




--------------------------------------- Iteration      1(  12)  ---------------------------------------


    POTLOK:  cpu time    1.6051: real time    1.6089
    SETDIJ:  cpu time    0.0062: real time    0.0062
     EDDAV:  cpu time    0.5456: real time    0.5469
       DOS:  cpu time    0.0001: real time    0.0001
    CHARGE:  cpu time    0.0954: real time    0.0956
    MIXING:  cpu time    0.0430: real time    0.0431
    --------------------------------------------
      LOOP:  cpu time    2.2954: real time    2.3009

 eigenvalue-minimisations  :    16
 total energy-change (2. order) :-0.4009763E-02  (-0.5853041E-04)
 number of electron       7.9999997 magnetization 
 augmentation part        0.1816449 magnetization 

 Broyden mixing:
  rms(total) = 0.23157E-02    rms(broyden)= 0.23156E-02
  rms(prec ) = 0.51810E-02
  weight for this iteration     100.00

 eigenvalues of (default mixing * dielectric matrix)
  average eigenvalue GAMMA=   2.3304
  5.0293  2.9373  2.9373  2.1434  1.2072  1.0291  1.0291

 Free energy of the ion-electron system (eV)
  ---------------------------------------------------
  alpha Z        PSCENC =         0.22279434
  Ewald energy   TEWEN  =       129.19021919
  -Hartree energ DENC   =      -285.08430707
  -exchange      EXHF   =         0.00000000
  -V(xc)+E(xc)   XCENC  =        24.59560226
  PAW double counting   =       447.86661476     -448.64368738
  entropy T*S    EENTRO =        -0.00000000
  eigenvalues    EBANDS =       -89.10517128
  atomic energy  EATOM  =       197.04175453
  Solvation  Ediel_sol  =         0.00000000
  ---------------------------------------------------
  free energy    TOTEN  =       -23.91618065 eV

  energy without entropy =      -23.91618065  energy(sigma->0) =      -23.91618065


--------------------------------------------------------------------------------------------------------




--------------------------------------- Iteration      1(  13)  ---------------------------------------


    POTLOK:  cpu time    1.5290: real time    1.5326
    SETDIJ:  cpu time    0.0062: real time    0.0062
     EDDAV:  cpu time    0.9146: real time    0.9167
       DOS:  cpu time    0.0001: real time    0.0001
    CHARGE:  cpu time    0.1029: real time    0.1032
    MIXING:  cpu time    0.0425: real time    0.0426
    --------------------------------------------
      LOOP:  cpu time    2.5953: real time    2.6014

 eigenvalue-minimisations  :    32
 total energy-change (2. order) :-0.4146274E-02  (-0.9858524E-04)
 number of electron       7.9999997 magnetization 
 augmentation part        0.1816200 magnetization 

 Broyden mixing:
  rms(total) = 0.19653E-02    rms(broyden)= 0.19649E-02
  rms(prec ) = 0.29774E-02
  weight for this iteration     100.00

 eigenvalues of (default mixing * dielectric matrix)
  average eigenvalue GAMMA=   2.2839
  5.8489  3.5183  2.5002  2.1715  1.2354  1.0926  1.0111  0.8935

 Free energy of the ion-electron system (eV)
  ---------------------------------------------------
  alpha Z        PSCENC =         0.22279434
  Ewald energy   TEWEN  =       129.19021919
  -Hartree energ DENC   =      -285.18432093
  -exchange      EXHF   =         0.00000000
  -V(xc)+E(xc)   XCENC  =        24.59648564
  PAW double counting   =       449.42225508     -450.19855989
  entropy T*S    EENTRO =        -0.00000000
  eigenvalues    EBANDS =       -89.01095489
  atomic energy  EATOM  =       197.04175453
  Solvation  Ediel_sol  =         0.00000000
  ---------------------------------------------------
  free energy    TOTEN  =       -23.92032692 eV

  energy without entropy =      -23.92032692  energy(sigma->0) =      -23.92032692


--------------------------------------------------------------------------------------------------------




--------------------------------------- Iteration      1(  14)  ---------------------------------------


    POTLOK:  cpu time    1.5200: real time    1.5236
    SETDIJ:  cpu time    0.0062: real time    0.0062
     EDDAV:  cpu time    0.5074: real time    0.5086
       DOS:  cpu time    0.0001: real time    0.0001
    CHARGE:  cpu time    0.0943: real time    0.0946
    MIXING:  cpu time    0.0429: real time    0.0430
    --------------------------------------------
      LOOP:  cpu time    2.1709: real time    2.1761

 eigenvalue-minimisations  :    16
 total energy-change (2. order) :-0.5326180E-03  (-0.4659293E-05)
 number of electron       7.9999997 magnetization 
 augmentation part        0.1816048 magnetization 

 Broyden mixing:
  rms(total) = 0.66570E-03    rms(broyden)= 0.66557E-03
  rms(prec ) = 0.15497E-02
  weight for this iteration     100.00

 eigenvalues of (default mixing * dielectric matrix)
  average eigenvalue GAMMA=   2.5533
  7.0530  4.3887  2.9618  2.4002  1.8388  1.2444  0.9883  0.9883  1.1158

 Free energy of the ion-electron system (eV)
  ---------------------------------------------------
  alpha Z        PSCENC =         0.22279434
  Ewald energy   TEWEN  =       129.19021919
  -Hartree energ DENC   =      -285.14048372
  -exchange      EXHF   =         0.00000000
  -V(xc)+E(xc)   XCENC  =        24.59126034
  PAW double counting   =       448.81518917     -449.59188705
  entropy T*S    EENTRO =        -0.00000000
  eigenvalues    EBANDS =       -89.04970635
  atomic energy  EATOM  =       197.04175453
  Solvation  Ediel_sol  =         0.00000000
  ---------------------------------------------------
  free energy    TOTEN  =       -23.92085954 eV

  energy without entropy =      -23.92085954  energy(sigma->0) =      -23.92085954


--------------------------------------------------------------------------------------------------------




--------------------------------------- Iteration      1(  15)  ---------------------------------------


    POTLOK:  cpu time    1.5563: real time    1.5601
    SETDIJ:  cpu time    0.0062: real time    0.0062
     EDDAV:  cpu time    0.5216: real time    0.5228
       DOS:  cpu time    0.0001: real time    0.0001
    CHARGE:  cpu time    0.0934: real time    0.0936
    MIXING:  cpu time    0.0420: real time    0.0421
    --------------------------------------------
      LOOP:  cpu time    2.2195: real time    2.2250

 eigenvalue-minimisations  :    16
 total energy-change (2. order) :-0.6905507E-03  (-0.8482091E-05)
 number of electron       7.9999997 magnetization 
 augmentation part        0.1816008 magnetization 

 Broyden mixing:
  rms(total) = 0.73314E-03    rms(broyden)= 0.73309E-03
  rms(prec ) = 0.93146E-03
  weight for this iteration     100.00

 eigenvalues of (default mixing * dielectric matrix)
  average eigenvalue GAMMA=   2.4252
  7.2829  4.5073  2.8252  2.4068  1.9914  1.2608  1.1167  0.9546  0.9546  0.9521

 Free energy of the ion-electron system (eV)
  ---------------------------------------------------
  alpha Z        PSCENC =         0.22279434
  Ewald energy   TEWEN  =       129.19021919
  -Hartree energ DENC   =      -285.12900335
  -exchange      EXHF   =         0.00000000
  -V(xc)+E(xc)   XCENC  =        24.58924202
  PAW double counting   =       448.29541458     -449.07210401
  entropy T*S    EENTRO =        -0.00000000
  eigenvalues    EBANDS =       -89.05986739
  atomic energy  EATOM  =       197.04175453
  Solvation  Ediel_sol  =         0.00000000
  ---------------------------------------------------
  free energy    TOTEN  =       -23.92155009 eV

  energy without entropy =      -23.92155009  energy(sigma->0) =      -23.92155009


--------------------------------------------------------------------------------------------------------




--------------------------------------- Iteration      1(  16)  ---------------------------------------


    POTLOK:  cpu time    1.5495: real time    1.5532
    SETDIJ:  cpu time    0.0070: real time    0.0070
     EDDAV:  cpu time    0.8966: real time    0.8987
       DOS:  cpu time    0.0001: real time    0.0001
    CHARGE:  cpu time    0.0959: real time    0.0961
    MIXING:  cpu time    0.0450: real time    0.0451
    --------------------------------------------
      LOOP:  cpu time    2.5940: real time    2.6002

 eigenvalue-minimisations  :    32
 total energy-change (2. order) :-0.4663965E-04  (-0.2174314E-06)
 number of electron       7.9999997 magnetization 
 augmentation part        0.1816017 magnetization 

 Broyden mixing:
  rms(total) = 0.27537E-03    rms(broyden)= 0.27536E-03
  rms(prec ) = 0.46204E-03
  weight for this iteration     100.00

 eigenvalues of (default mixing * dielectric matrix)
  average eigenvalue GAMMA=   2.6642
  8.3727  4.9468  3.6571  2.7004  2.3265  1.8897  1.3103  1.1406  0.9954  0.9954
  0.9710

 Free energy of the ion-electron system (eV)
  ---------------------------------------------------
  alpha Z        PSCENC =         0.22279434
  Ewald energy   TEWEN  =       129.19021919
  -Hartree energ DENC   =      -285.13594209
  -exchange      EXHF   =         0.00000000
  -V(xc)+E(xc)   XCENC  =        24.58985832
  PAW double counting   =       448.45736871     -449.23403385
  entropy T*S    EENTRO =        -0.00000000
  eigenvalues    EBANDS =       -89.05361588
  atomic energy  EATOM  =       197.04175453
  Solvation  Ediel_sol  =         0.00000000
  ---------------------------------------------------
  free energy    TOTEN  =       -23.92159673 eV

  energy without entropy =      -23.92159673  energy(sigma->0) =      -23.92159673


--------------------------------------------------------------------------------------------------------




--------------------------------------- Iteration      1(  17)  ---------------------------------------


    POTLOK:  cpu time    1.6160: real time    1.6198
    SETDIJ:  cpu time    0.0062: real time    0.0062
     EDDAV:  cpu time    0.5088: real time    0.5100
       DOS:  cpu time    0.0001: real time    0.0001
    CHARGE:  cpu time    0.0937: real time    0.0939
    MIXING:  cpu time    0.0455: real time    0.0456
    --------------------------------------------
      LOOP:  cpu time    2.2703: real time    2.2757

 eigenvalue-minimisations  :    16
 total energy-change (2. order) :-0.9181130E-04  (-0.4352345E-06)
 number of electron       7.9999997 magnetization 
 augmentation part        0.1815985 magnetization 

 Broyden mixing:
  rms(total) = 0.76868E-04    rms(broyden)= 0.76842E-04
  rms(prec ) = 0.11733E-03
  weight for this iteration     100.00

 eigenvalues of (default mixing * dielectric matrix)
  average eigenvalue GAMMA=   2.5764
  8.6278  5.2531  3.7373  2.6833  2.3352  1.8549  1.2939  1.1536  0.9696  0.9696
  1.0194  1.0194

 Free energy of the ion-electron system (eV)
  ---------------------------------------------------
  alpha Z        PSCENC =         0.22279434
  Ewald energy   TEWEN  =       129.19021919
  -Hartree energ DENC   =      -285.15198576
  -exchange      EXHF   =         0.00000000
  -V(xc)+E(xc)   XCENC  =        24.59076676
  PAW double counting   =       448.51740667     -449.29408806
  entropy T*S    EENTRO =        -0.00000000
  eigenvalues    EBANDS =       -89.03855621
  atomic energy  EATOM  =       197.04175453
  Solvation  Ediel_sol  =         0.00000000
  ---------------------------------------------------
  free energy    TOTEN  =       -23.92168854 eV

  energy without entropy =      -23.92168854  energy(sigma->0) =      -23.92168854


--------------------------------------------------------------------------------------------------------




--------------------------------------- Iteration      1(  18)  ---------------------------------------


    POTLOK:  cpu time    1.6127: real time    1.6166
    SETDIJ:  cpu time    0.0062: real time    0.0062
     EDDAV:  cpu time    0.9525: real time    0.9548
       DOS:  cpu time    0.0001: real time    0.0001
    CHARGE:  cpu time    0.0944: real time    0.0947
    MIXING:  cpu time    0.0471: real time    0.0472
    --------------------------------------------
      LOOP:  cpu time    2.7131: real time    2.7195

 eigenvalue-minimisations  :    32
 total energy-change (2. order) :-0.4030330E-05  (-0.1284663E-07)
 number of electron       7.9999997 magnetization 
 augmentation part        0.1815998 magnetization 

 Broyden mixing:
  rms(total) = 0.65950E-04    rms(broyden)= 0.65943E-04
  rms(prec ) = 0.93005E-04
  weight for this iteration     100.00

 eigenvalues of (default mixing * dielectric matrix)
  average eigenvalue GAMMA=   2.6525
  8.8076  5.4730  3.7274  2.8569  2.8569  2.3724  1.9341  1.3597  1.1735  1.0020
  1.0020  0.9500  0.9674

 Free energy of the ion-electron system (eV)
  ---------------------------------------------------
  alpha Z        PSCENC =         0.22279434
  Ewald energy   TEWEN  =       129.19021919
  -Hartree energ DENC   =      -285.15001591
  -exchange      EXHF   =         0.00000000
  -V(xc)+E(xc)   XCENC  =        24.59064381
  PAW double counting   =       448.52258329     -449.29925274
  entropy T*S    EENTRO =        -0.00000000
  eigenvalues    EBANDS =       -89.04041910
  atomic energy  EATOM  =       197.04175453
  Solvation  Ediel_sol  =         0.00000000
  ---------------------------------------------------
  free energy    TOTEN  =       -23.92169257 eV

  energy without entropy =      -23.92169257  energy(sigma->0) =      -23.92169257


--------------------------------------------------------------------------------------------------------




--------------------------------------- Iteration      1(  19)  ---------------------------------------


    POTLOK:  cpu time    1.6949: real time    1.6989
    SETDIJ:  cpu time    0.0070: real time    0.0070
     EDDAV:  cpu time    0.5322: real time    0.5335
       DOS:  cpu time    0.0001: real time    0.0001
    CHARGE:  cpu time    0.0948: real time    0.0950
    MIXING:  cpu time    0.0505: real time    0.0506
    --------------------------------------------
      LOOP:  cpu time    2.3794: real time    2.3851

 eigenvalue-minimisations  :    16
 total energy-change (2. order) :-0.6690794E-05  (-0.2528139E-07)
 number of electron       7.9999997 magnetization 
 augmentation part        0.1815998 magnetization 

 Broyden mixing:
  rms(total) = 0.35930E-04    rms(broyden)= 0.35926E-04
  rms(prec ) = 0.48129E-04
  weight for this iteration     100.00

 eigenvalues of (default mixing * dielectric matrix)
  average eigenvalue GAMMA=   2.5552
  8.8852  5.5334  4.1406  3.0772  2.5909  2.2782  1.6721  1.4259  1.1948  1.0360
  1.0360  0.9749  0.9749  0.9535

 Free energy of the ion-electron system (eV)
  ---------------------------------------------------
  alpha Z        PSCENC =         0.22279434
  Ewald energy   TEWEN  =       129.19021919
  -Hartree energ DENC   =      -285.14867300
  -exchange      EXHF   =         0.00000000
  -V(xc)+E(xc)   XCENC  =        24.59048229
  PAW double counting   =       448.51958000     -449.29623604
  entropy T*S    EENTRO =        -0.00000000
  eigenvalues    EBANDS =       -89.04162057
  atomic energy  EATOM  =       197.04175453
  Solvation  Ediel_sol  =         0.00000000
  ---------------------------------------------------
  free energy    TOTEN  =       -23.92169926 eV

  energy without entropy =      -23.92169926  energy(sigma->0) =      -23.92169926


--------------------------------------------------------------------------------------------------------




--------------------------------------- Iteration      1(  20)  ---------------------------------------


    POTLOK:  cpu time    1.7084: real time    1.7125
    SETDIJ:  cpu time    0.0062: real time    0.0062
     EDDAV:  cpu time    0.7012: real time    0.7029
       DOS:  cpu time    0.0001: real time    0.0001
    --------------------------------------------
      LOOP:  cpu time    2.4159: real time    2.4216

 eigenvalue-minimisations  :    24
 total energy-change (2. order) :-0.1703348E-06  (-0.2269971E-08)
 number of electron       7.9999997 magnetization 
 augmentation part        0.1815998 magnetization 

 Free energy of the ion-electron system (eV)
  ---------------------------------------------------
  alpha Z        PSCENC =         0.22279434
  Ewald energy   TEWEN  =       129.19021919
  -Hartree energ DENC   =      -285.14954052
  -exchange      EXHF   =         0.00000000
  -V(xc)+E(xc)   XCENC  =        24.59053572
  PAW double counting   =       448.52433715     -449.30099839
  entropy T*S    EENTRO =        -0.00000000
  eigenvalues    EBANDS =       -89.04080145
  atomic energy  EATOM  =       197.04175453
  Solvation  Ediel_sol  =         0.00000000
  ---------------------------------------------------
  free energy    TOTEN  =       -23.92169943 eV

  energy without entropy =      -23.92169943  energy(sigma->0) =      -23.92169943


--------------------------------------------------------------------------------------------------------




 average (electrostatic) potential at core
  the test charge radii are     0.5201  0.6991
  (the norm of the test charge is              1.0000)
       1 -41.2976       2 -41.5303       3 -41.5872       4 -41.3571       5 -58.0620



 E-fermi :  -8.4953     XC(G=0):  -0.6581     alpha+bet : -0.1938


 k-point     1 :       0.0000    0.0000    0.0000
  band No.  band energies     occupation 
      1     -16.8149      2.00000
      2      -9.6143      2.00000
      3      -9.3350      2.00000
      4      -8.7563      2.00000
      5      -0.5409      0.00000
      6       0.8925      0.00000
      7       0.9427      0.00000
      8       0.9914      0.00000


--------------------------------------------------------------------------------------------------------


 soft charge-density along one line, spin component           1
         0         1         2         3         4         5         6         7         8         9
 total charge-density along one line

 pseudopotential strength for first ion, spin component:           1
 -2.340  -4.031   0.001   0.001   0.001
 -4.031  -6.859   0.002   0.003   0.003
  0.001   0.002  -0.340   0.001   0.001
  0.001   0.003   0.001  -0.338   0.002
  0.001   0.003   0.001   0.002  -0.339
 total augmentation occupancy for first ion, spin component:           1
  3.411  -0.617  -0.179  -0.274  -0.215
 -0.617   0.125   0.032   0.052   0.040
 -0.179   0.032   0.015   0.012   0.010
 -0.274   0.052   0.012   0.027   0.015
 -0.215   0.040   0.010   0.015   0.019


------------------------ aborting loop because EDIFF is reached ----------------------------------------


    CHARGE:  cpu time    0.0963: real time    0.0966
    FORLOC:  cpu time    0.1195: real time    0.1198
    FORNL :  cpu time    0.1674: real time    0.1678
    STRESS:  cpu time    0.6274: real time    0.6289
    FORCOR:  cpu time    1.7342: real time    1.7383
    FORHAR:  cpu time    0.5628: real time    0.5641
    MIXING:  cpu time    0.0504: real time    0.0505
    OFIELD:  cpu time    0.0000: real time    0.0000

  FORCE on cell =-STRESS in cart. coord.  units (eV):
  Direction    XX          YY          ZZ          XY          YZ          ZX
  --------------------------------------------------------------------------------------
  Alpha Z     0.22279     0.22279     0.22279
  Ewald      48.76470    42.84471    37.58076     0.81065     7.44237    -5.25707
  Hartree    97.37286    95.56925    92.20733     0.41740     2.53769    -1.06451
  E(xc)     -27.02948   -27.04133   -27.06597     0.00550     0.04601    -0.02278
  Local    -204.10964  -197.68683  -189.26352    -1.17026    -8.97584     5.13562
  n-local   -15.53520   -15.51644   -15.64794    -0.01250     0.10519     0.06140
  augment     0.11477     0.12499     0.12402    -0.00036    -0.00535     0.00930
  Kinetic    99.16729   100.08338   101.36613    -0.16592    -2.34586     1.04208
  Fock        0.00000     0.00000     0.00000     0.00000     0.00000     0.00000
  -------------------------------------------------------------------------------------
  Total      -1.03191    -1.39947    -0.47639    -0.11549    -1.19580    -0.09597
  in kB      -1.52051    -2.06211    -0.70196    -0.17017    -1.76202    -0.14141
  external pressure =       -1.43 kB  Pullay stress =        0.00 kB


 VOLUME and BASIS-vectors are now :
 -----------------------------------------------------------------------------
  energy-cutoff  :      400.00
  volume of cell :     1087.33
      direct lattice vectors                 reciprocal lattice vectors
    10.160926800  0.000000000  0.000000000     0.098416219 -0.000900045 -0.000512992
     0.093834400 10.260411300  0.000000000     0.000000000  0.097461980 -0.001306014
     0.055641600  0.139757600 10.429487300     0.000000000  0.000000000  0.095881990

  length of vectors
    10.160926800 10.260840362 10.430572061     0.098421672  0.097470730  0.095881990


 FORCES acting on ions
    electron-ion (+dipol)            ewald-force                    non-local-force                 convergence-correction
 -----------------------------------------------------------------------------------------------
   -.277E+02 -.228E+02 -.365E+02   0.299E+02 0.243E+02 0.396E+02   -.276E+01 -.234E+01 -.348E+01   -.151E-04 -.202E-04 -.198E-04
   -.185E+02 -.205E+02 0.454E+02   0.202E+02 0.230E+02 -.505E+02   -.207E+01 -.208E+01 0.474E+01   -.223E-04 -.127E-04 0.237E-04
   0.510E+02 -.975E+01 -.794E+01   -.562E+02 0.107E+02 0.863E+01   0.536E+01 -.106E+01 -.833E+00   0.323E-04 -.986E-06 -.175E-04
   -.951E+01 0.502E+02 0.597E+01   0.102E+02 -.544E+02 -.600E+01   -.101E+01 0.495E+01 0.764E+00   -.258E-05 0.306E-04 0.317E-05
   0.401E+01 0.325E+01 -.754E+01   -.408E+01 -.357E+01 0.831E+01   0.114E+01 0.113E+00 -.528E+00   0.101E-03 0.266E-04 -.102E-03
 -----------------------------------------------------------------------------------------------
   -.660E+00 0.413E+00 -.662E+00   -.888E-14 0.142E-13 0.000E+00   0.660E+00 -.413E+00 0.661E+00   0.938E-04 0.234E-04 -.113E-03


 POSITION                                       TOTAL-FORCE (eV/Angst)
 -----------------------------------------------------------------------------------
      5.78686      5.35911      5.44702        -0.581358     -0.853533     -0.419853
      5.55063      5.27024      3.71854        -0.333288      0.444553     -0.400547
      4.10079      5.05985      4.80806         0.114174     -0.083376     -0.148348
      5.38292      3.75679      4.50876        -0.268006      0.702968      0.725486
      5.16655      4.85170      4.64861         1.068478     -0.210612      0.243263
 -----------------------------------------------------------------------------------
    total drift:                               -0.000091      0.000601     -0.000364


--------------------------------------------------------------------------------------------------------



  FREE ENERGIE OF THE ION-ELECTRON SYSTEM (eV)
  ---------------------------------------------------
  free  energy   TOTEN  =       -23.92169943 eV

  energy  without entropy=      -23.92169943  energy(sigma->0) =      -23.92169943



--------------------------------------------------------------------------------------------------------


    POTLOK:  cpu time    1.6698: real time    1.6738


--------------------------------------------------------------------------------------------------------


     LOOP+:  cpu time   48.4832: real time   48.6256
    4ORBIT:  cpu time    0.0000: real time    0.0000

 total amount of memory used by VASP MPI-rank0   297513. kBytes
=======================================================================

   base      :      30000. kBytes
   nonlr-proj:       1238. kBytes
   fftplans  :      94700. kBytes
   grid      :     169030. kBytes
   one-center:         15. kBytes
   wavefun   :       2530. kBytes

  
  
 General timing and accounting informations for this job:
 ========================================================
  
                  Total CPU time used (sec):       50.737
                            User time (sec):       49.174
                          System time (sec):        1.563
                         Elapsed time (sec):       50.895
  
                   Maximum memory used (kb):      423452.
                   Average memory used (kb):           0.
  
                          Minor page faults:       228752
                          Major page faults:            0
                 Voluntary context switches:          139
