 vasp.5.4.4.18Apr17-6-g9f103f2a35 (build Jul 12 2018 13:43:46) complex           
 executed on             LinuxGNU date 2019.06.24  12:57:25
 running on    1 total cores
 distrk:  each k-point on    1 cores,    1 groups
 distr:  one band on NCORES_PER_BAND=   1 cores,    1 groups


--------------------------------------------------------------------------------------------------------


 INCAR:
 POTCAR:    PAW_PBE H 15Jun2001                   
 POTCAR:    PAW_PBE C 08Apr2002                   
 POTCAR:    PAW_PBE H 15Jun2001                   
   VRHFIN =H: ultrasoft test                                                    
   LEXCH  = PE                                                                  
   EATOM  =    12.4884 eV,    0.9179 Ry                                         
                                                                                
   TITEL  = PAW_PBE H 15Jun2001                                                 
   LULTRA =        F    use ultrasoft PP ?                                      
   IUNSCR =        0    unscreen: 0-lin 1-nonlin 2-no                           
   RPACOR =    0.000    partial core radius                                     
   POMASS =    1.000; ZVAL   =    1.000    mass and valenz                      
   RCORE  =    1.100    outmost cutoff radius                                   
   RWIGS  =    0.700; RWIGS  =    0.370    wigner-seitz radius (au A)           
   ENMAX  =  250.000; ENMIN  =  200.000 eV                                      
   RCLOC  =    0.701    cutoff for local pot                                    
   LCOR   =        T    correct aug charges                                     
   LPAW   =        T    paw PP                                                  
   EAUG   =  400.000                                                            
   RMAX   =    1.123    core radius for proj-oper                               
   RAUG   =    1.200    factor for augmentation sphere                          
   RDEP   =    1.112    radius for radial grids                                 
   RDEPT  =    0.926    core radius for aug-charge                              
                                                                                
   Atomic configuration                                                         
    2 entries                                                                   
     n  l   j            E        occ.                                          
     1  0  0.50        -6.4927   1.0000                                         
     2  1  0.50        -3.4015   0.0000                                         
   Description                                                                  
     l       E           TYP  RCUT    TYP  RCUT                                 
     0     -6.4927494     23  1.100                                             
     0      6.8029130     23  1.100                                             
     1     -4.0817478     23  1.100                                             
  local pseudopotential read in
  atomic valenz-charges read in
  non local Contribution for L=           0  read in
    real space projection operators read in
  non local Contribution for L=           0  read in
    real space projection operators read in
  non local Contribution for L=           1  read in
    real space projection operators read in
    PAW grid and wavefunctions read in

   number of l-projection  operators is LMAX  =           3
   number of lm-projection operators is LMMAX =           5

 POTCAR:    PAW_PBE C 08Apr2002                   
   VRHFIN =C: s2p2                                                              
   LEXCH  = PE                                                                  
   EATOM  =   147.1560 eV,   10.8157 Ry                                         
                                                                                
   TITEL  = PAW_PBE C 08Apr2002                                                 
   LULTRA =        F    use ultrasoft PP ?                                      
   IUNSCR =        1    unscreen: 0-lin 1-nonlin 2-no                           
   RPACOR =    1.200    partial core radius                                     
   POMASS =   12.011; ZVAL   =    4.000    mass and valenz                      
   RCORE  =    1.500    outmost cutoff radius                                   
   RWIGS  =    1.630; RWIGS  =    0.863    wigner-seitz radius (au A)           
   ENMAX  =  400.000; ENMIN  =  300.000 eV                                      
   ICORE  =        2    local potential                                         
   LCOR   =        T    correct aug charges                                     
   LPAW   =        T    paw PP                                                  
   EAUG   =  644.873                                                            
   DEXC   =    0.000                                                            
   RMAX   =    1.529    core radius for proj-oper                               
   RAUG   =    1.300    factor for augmentation sphere                          
   RDEP   =    1.501    radius for radial grids                                 
   RDEPT  =    1.300    core radius for aug-charge                              
                                                                                
   Atomic configuration                                                         
    4 entries                                                                   
     n  l   j            E        occ.                                          
     1  0  0.50      -273.3789   2.0000                                         
     2  0  0.50       -13.7508   2.0000                                         
     2  1  0.50        -5.2854   2.0000                                         
     3  2  1.50        -5.4423   0.0000                                         
   Description                                                                  
     l       E           TYP  RCUT    TYP  RCUT                                 
     0    -13.7508458     23  1.200                                             
     0     -8.2022199     23  1.200                                             
     1     -5.2854383     23  1.500                                             
     1     34.0145650     23  1.500                                             
     2     -5.4423304      7  1.500                                             
  local pseudopotential read in
  partial core-charges read in
  partial kinetic energy density read in
  atomic valenz-charges read in
  non local Contribution for L=           0  read in
    real space projection operators read in
  non local Contribution for L=           0  read in
    real space projection operators read in
  non local Contribution for L=           1  read in
    real space projection operators read in
  non local Contribution for L=           1  read in
    real space projection operators read in
    PAW grid and wavefunctions read in

   number of l-projection  operators is LMAX  =           4
   number of lm-projection operators is LMMAX =           8


 ----------------------------------------------------------------------------- 
|                                                                             |
|  ADVICE TO THIS USER RUNNING 'VASP/VAMP'   (HEAR YOUR MASTER'S VOICE ...):  |
|                                                                             |
|      You have a (more or less) 'small supercell' and for smaller cells      |
|      it is recommended  to use the reciprocal-space projection scheme!      |
|      The real space optimization is not  efficient for small cells and it   |
|      is also less accurate ...                                              |
|      Therefore set LREAL=.FALSE. in the  INCAR file                         |
|                                                                             |
 ----------------------------------------------------------------------------- 

 Optimization of the real space projectors (new method)

 maximal supplied QI-value         = 34.20
 optimisation between [QCUT,QGAM] = [  9.92, 20.18] = [ 27.55,114.04] Ry 
 Optimized for a Real-space Cutoff    1.34 Angstroem

   l    n(q)    QCUT    max X(q) W(low)/X(q) W(high)/X(q)  e(spline) 
   0      8     9.919    19.460    0.16E-03    0.20E-03    0.36E-06
   0      8     9.919    12.209    0.16E-03    0.20E-03    0.35E-06
   1      8     9.919     4.655    0.19E-03    0.46E-03    0.40E-06
 Optimization of the real space projectors (new method)

 maximal supplied QI-value         = 25.13
 optimisation between [QCUT,QGAM] = [ 10.05, 20.36] = [ 28.30,116.06] Ry 
 Optimized for a Real-space Cutoff    1.51 Angstroem

   l    n(q)    QCUT    max X(q) W(low)/X(q) W(high)/X(q)  e(spline) 
   0      9    10.053   115.676    0.19E-03    0.21E-03    0.38E-06
   0      9    10.053    87.132    0.19E-03    0.21E-03    0.38E-06
   1      9    10.053     4.429    0.87E-04    0.11E-03    0.39E-06
   1      9    10.053     2.733    0.59E-04    0.62E-04    0.43E-06
  PAW_PBE H 15Jun2001                   :
 energy of atom  1       EATOM=  -12.4884
 kinetic energy error for atom=    0.0098 (will be added to EATOM!!)
  PAW_PBE C 08Apr2002                   :
 energy of atom  2       EATOM= -147.1560
 kinetic energy error for atom=    0.0288 (will be added to EATOM!!)


 POSCAR: POSCAR file written by OVITO            
  positions in cartesian coordinates
  No initial velocities read in
 exchange correlation table for  LEXCH =        8
   RHO(1)=    0.500       N(1)  =     2000
   RHO(2)=  100.500       N(2)  =     4000



--------------------------------------------------------------------------------------------------------


 ion  position               nearest neighbor table
   1  0.599  0.485  0.396-   5 1.06
   2  0.443  0.392  0.392-   5 1.12
   3  0.452  0.562  0.441-   5 1.09
   4  0.527  0.428  0.548-   5 1.11
   5  0.503  0.467  0.445-   1 1.06   3 1.09   4 1.11   2 1.12


IMPORTANT INFORMATION: All symmetrisations will be switched off!
NOSYMM: (Re-)initialisation of all symmetry stuff for point group C_1.




Automatic generation of k-mesh.
 generate k-points for:    1    1    1
Space group operators:
 irot       det(A)        alpha          n_x          n_y          n_z        tau_x        tau_y        tau_z
    1     1.000000     0.000000     1.000000     0.000000     0.000000     0.000000     0.000000     0.000000
 
 Subroutine IBZKPT returns following result:
 ===========================================
 
 Found      1 irreducible k-points:
 
 Following reciprocal coordinates:
            Coordinates               Weight
  0.000000  0.000000  0.000000      1.000000
 
 Following cartesian coordinates:
            Coordinates               Weight
  0.000000  0.000000  0.000000      1.000000
 


--------------------------------------------------------------------------------------------------------




 Dimension of arrays:
   k-points           NKPTS =      1   k-points in BZ     NKDIM =      1   number of bands    NBANDS=      8
   number of dos      NEDOS =    301   number of ions     NIONS =      5
   non local maximal  LDIM  =      4   non local SUM 2l+1 LMDIM =      8
   total plane-waves  NPLWV = 313600
   max r-space proj   IRMAX =   4581   max aug-charges    IRDMAX=   3918
   dimension x,y,z NGX =    64 NGY =   70 NGZ =   70
   dimension x,y,z NGXF=   128 NGYF=  140 NGZF=  140
   support grid    NGXF=   128 NGYF=  140 NGZF=  140
   ions per type =               4   1
   NGX,Y,Z   is equivalent  to a cutoff of  10.83, 11.39, 11.73 a.u.
   NGXF,Y,Z  is equivalent  to a cutoff of  21.66, 22.77, 23.46 a.u.

 SYSTEM =  unknown system                          
 POSCAR =  POSCAR file written by OVITO            

 Startparameter for this run:
   NWRITE =      2    write-flag & timer
   PREC   = a         normal or accurate (medium, high low for compatibility)
   ISTART =      0    job   : 0-new  1-cont  2-samecut
   ICHARG =      2    charge: 1-file 2-atom 10-const
   ISPIN  =      1    spin polarized calculation?
   LNONCOLLINEAR =      F non collinear calculations
   LSORBIT =      F    spin-orbit coupling
   INIWAV =      1    electr: 0-lowe 1-rand  2-diag
   LASPH  =      F    aspherical Exc in radial PAW
   METAGGA=      F    non-selfconsistent MetaGGA calc.

 Electronic Relaxation 1
   ENCUT  =  400.0 eV  29.40 Ry    5.42 a.u.  16.02 16.67 16.18*2*pi/ulx,y,z
   ENINI  =  400.0     initial cutoff
   ENAUG  =  644.9 eV  augmentation charge cutoff
   NELM   =    120;   NELMIN=  4; NELMDL= -5     # of ELM steps 
   EDIFF  = 0.1E-05   stopping-criterion for ELM
   LREAL  =      T    real-space projection
   NLSPLINE    = F    spline interpolate recip. space projectors
   LCOMPAT=      F    compatible to vasp.4.4
   GGA_COMPAT  = T    GGA compatible to vasp.4.4-vasp.4.6
   LMAXPAW     = -100 max onsite density
   LMAXMIX     =    2 max onsite mixed and CHGCAR
   VOSKOWN=      0    Vosko Wilk Nusair interpolation
   ROPT   =   -0.00025  -0.00025
 Ionic relaxation
   EDIFFG = 0.1E-04   stopping-criterion for IOM
   NSW    =      0    number of steps for IOM
   NBLOCK =      1;   KBLOCK =      1    inner block; outer block 
   IBRION =     -1    ionic relax: 0-MD 1-quasi-New 2-CG
   NFREE  =      0    steps in history (QN), initial steepest desc. (CG)
   ISIF   =      2    stress and relaxation
   IWAVPR =     10    prediction:  0-non 1-charg 2-wave 3-comb
   ISYM   =      0    0-nonsym 1-usesym 2-fastsym
   LCORR  =      T    Harris-Foulkes like correction to forces

   POTIM  = 0.5000    time-step for ionic-motion
   TEIN   =    0.0    initial temperature
   TEBEG  =    0.0;   TEEND  =   0.0 temperature during run
   SMASS  =  -3.00    Nose mass-parameter (am)
   estimated Nose-frequenzy (Omega)   =  0.10E-29 period in steps =****** mass=  -0.220E-26a.u.
   SCALEE = 1.0000    scale energy and forces
   NPACO  =    256;   APACO  = 16.0  distance and # of slots for P.C.
   PSTRESS=    0.0 pullay stress

  Mass of Ions in am
   POMASS =   1.00 12.01
  Ionic Valenz
   ZVAL   =   1.00  4.00
  Atomic Wigner-Seitz radii
   RWIGS  =  -1.00 -1.00
  virtual crystal weights 
   VCA    =   1.00  1.00
   NELECT =       8.0000    total number of electrons
   NUPDOWN=      -1.0000    fix difference up-down

 DOS related values:
   EMIN   =  10.00;   EMAX   =-10.00  energy-range for DOS
   EFERMI =   0.00
   ISMEAR =     0;   SIGMA  =   0.05  broadening in eV -4-tet -1-fermi 0-gaus

 Electronic relaxation 2 (details)
   IALGO  =     38    algorithm
   LDIAG  =      T    sub-space diagonalisation (order eigenvalues)
   LSUBROT=      F    optimize rotation matrix (better conditioning)
   TURBO    =      0    0=normal 1=particle mesh
   IRESTART =      0    0=no restart 2=restart with 2 vectors
   NREBOOT  =      0    no. of reboots
   NMIN     =      0    reboot dimension
   EREF     =   0.00    reference energy to select bands
   IMIX   =      4    mixing-type and parameters
     AMIX     =   0.40;   BMIX     =  1.00
     AMIX_MAG =   1.60;   BMIX_MAG =  1.00
     AMIN     =   0.10
     WC   =   100.;   INIMIX=   1;  MIXPRE=   1;  MAXMIX= -45

 Intra band minimization:
   WEIMIN = 0.0000     energy-eigenvalue tresh-hold
   EBREAK =  0.31E-07  absolut break condition
   DEPER  =   0.30     relativ break condition  

   TIME   =   0.40     timestep for ELM

  volume/ion in A,a.u.               =     199.04      1343.17
  Fermi-wavevector in a.u.,A,eV,Ry     =   0.327947  0.619730  1.463296  0.107549
  Thomas-Fermi vector in A             =   1.221113

 Write flags
   LWAVE        =      F    write WAVECAR
   LDOWNSAMPLE  =      F    k-point downsampling of WAVECAR
   LCHARG       =      F    write CHGCAR
   LVTOT        =      F    write LOCPOT, total local potential
   LVHAR        =      F    write LOCPOT, Hartree potential only
   LELF         =      F    write electronic localiz. function (ELF)
   LORBIT       =      0    0 simple, 1 ext, 2 COOP (PROOUT), +10 PAW based schemes


 Dipole corrections
   LMONO  =      F    monopole corrections only (constant potential shift)
   LDIPOL =      F    correct potential (dipole corrections)
   IDIPOL =      0    1-x, 2-y, 3-z, 4-all directions 
   EPSILON=  1.0000000 bulk dielectric constant

 Exchange correlation treatment:
   GGA     =    --    GGA type
   LEXCH   =     8    internal setting for exchange type
   VOSKOWN=      0    Vosko Wilk Nusair interpolation
   LHFCALC =     F    Hartree Fock is set to
   LHFONE  =     F    Hartree Fock one center treatment
   AEXX    =    0.0000 exact exchange contribution

 Linear response parameters
   LEPSILON=     F    determine dielectric tensor
   LRPA    =     F    only Hartree local field effects (RPA)
   LNABLA  =     F    use nabla operator in PAW spheres
   LVEL    =     F    velocity operator in full k-point grid
   LINTERFAST=   F  fast interpolation
   KINTER  =     0    interpolate to denser k-point grid
   CSHIFT  =0.1000    complex shift for real part using Kramers Kronig
   OMEGAMAX=  -1.0    maximum frequency
   DEG_THRESHOLD= 0.2000000E-02 threshold for treating states as degnerate
   RTIME   =   -0.100 relaxation time in fs
  (WPLASMAI=    0.000 imaginary part of plasma frequency in eV, 0.658/RTIME)
   DFIELD  = 0.0000000 0.0000000 0.0000000 field for delta impulse in time

 Orbital magnetization related:
   ORBITALMAG=     F  switch on orbital magnetization
   LCHIMAG   =     F  perturbation theory with respect to B field
   DQ        =  0.001000  dq finite difference perturbation B field
   LLRAUG    =     F  two centre corrections for induced B field



--------------------------------------------------------------------------------------------------------


 Static calculation
 charge density and potential will be updated during run
 non-spin polarized calculation
 Variant of blocked Davidson
 Davidson routine will perform the subspace rotation
 perform sub-space diagonalisation
    after iterative eigenvector-optimisation
 modified Broyden-mixing scheme, WC =      100.0
 initial mixing is a Kerker type mixing with AMIX =  0.4000 and BMIX =      1.0000
 Hartree-type preconditioning will be used
 using additional bands            4
 real space projection scheme for non local part
 use partial core corrections
 calculate Harris-corrections to forces   (improved forces if not selfconsistent)
 use gradient corrections 
 use of overlap-Matrix (Vanderbilt PP)
 Gauss-broadening in eV      SIGMA  =   0.05


--------------------------------------------------------------------------------------------------------


  energy-cutoff  :      400.00
  volume of cell :      995.18
      direct lattice vectors                 reciprocal lattice vectors
     9.822807300  0.000000000  0.000000000     0.101803891  0.000633718 -0.002892377
    -0.063626100 10.221235300  0.000000000     0.000000000  0.097835533 -0.002573303
     0.279991800  0.260710800  9.912079000     0.000000000 -0.000000000  0.100887009

  length of vectors
     9.822807300 10.221433331  9.919459443     0.101846942  0.097869369  0.100887009



 k-points in units of 2pi/SCALE and weight: read from INCAR                         
   0.00000000  0.00000000  0.00000000       1.000

 k-points in reciprocal lattice and weights: read from INCAR                         
   0.00000000  0.00000000  0.00000000       1.000

 position of ions in fractional coordinates (direct lattice) 
   0.59850872  0.48533085  0.39575534
   0.44260031  0.39197538  0.39160687
   0.45204209  0.56183764  0.44111820
   0.52734036  0.42815308  0.54760040
   0.50280263  0.46724064  0.44540589

 position of ions in cartesian coordinates  (Angst):
   5.95896440  5.06385850  3.92275820
   4.43228440  4.10856870  3.88163820
   4.52808430  5.85767900  4.37239840
   5.30604460  4.51901870  5.42785840
   5.03391460  4.89189860  4.41489840



--------------------------------------------------------------------------------------------------------


 k-point  1 :   0.0000 0.0000 0.0000  plane waves:   18055

 maximum and minimum number of plane-waves per node :     18055    18055

 maximum number of plane-waves:     18055
 maximum index in each direction: 
   IXMAX=   16   IYMAX=   16   IZMAX=   16
   IXMIN=  -16   IYMIN=  -16   IZMIN=  -16


 serial   3D FFT for wavefunctions
 parallel 3D FFT for charge:
    minimum data exchange during FFTs selected (reduces bandwidth)


 total amount of memory used by VASP MPI-rank0   274695. kBytes
=======================================================================

   base      :      30000. kBytes
   nonlr-proj:       1240. kBytes
   fftplans  :      86584. kBytes
   grid      :     154542. kBytes
   one-center:         15. kBytes
   wavefun   :       2314. kBytes

     INWAV:  cpu time    0.0000: real time    0.0000
 Broyden mixing: mesh for mixing (old mesh)
   NGX = 33   NGY = 33   NGZ = 33
  (NGX  =128   NGY  =140   NGZ  =140)
  gives a total of  35937 points

 initial charge density was supplied:
 charge density of overlapping atoms calculated
 number of electron       8.0000000 magnetization 
 keeping initial charge density in first step


--------------------------------------------------------------------------------------------------------


 Maximum index for non-local projection operator         4410
 Maximum index for augmentation-charges         3614 (set IRDMAX)


--------------------------------------------------------------------------------------------------------


 First call to EWALD:  gamma=   0.178
 Maximum number of real-space cells 3x 3x 3
 Maximum number of reciprocal cells 3x 3x 3

    FEWALD:  cpu time    0.0007: real time    0.0007


--------------------------------------- Iteration      1(   1)  ---------------------------------------


    POTLOK:  cpu time    1.9159: real time    1.9206
    SETDIJ:  cpu time    0.0072: real time    0.0072
     EDDAV:  cpu time    0.5685: real time    0.5698
       DOS:  cpu time    0.0001: real time    0.0001
    --------------------------------------------
      LOOP:  cpu time    2.4917: real time    2.4978

 eigenvalue-minimisations  :    16
 total energy-change (2. order) : 0.5418084E+02  (-0.1682360E+03)
 number of electron       8.0000000 magnetization 
 augmentation part        8.0000000 magnetization 

 Free energy of the ion-electron system (eV)
  ---------------------------------------------------
  alpha Z        PSCENC =         0.24342290
  Ewald energy   TEWEN  =       128.66079061
  -Hartree energ DENC   =      -243.84969099
  -exchange      EXHF   =         0.00000000
  -V(xc)+E(xc)   XCENC  =        22.01194294
  PAW double counting   =       117.05815612     -117.66307307
  entropy T*S    EENTRO =        -0.00000000
  eigenvalues    EBANDS =       -49.32246558
  atomic energy  EATOM  =       197.04175453
  Solvation  Ediel_sol  =         0.00000000
  ---------------------------------------------------
  free energy    TOTEN  =        54.18083747 eV

  energy without entropy =       54.18083747  energy(sigma->0) =       54.18083747


--------------------------------------------------------------------------------------------------------




--------------------------------------- Iteration      1(   2)  ---------------------------------------


     EDDAV:  cpu time    0.7788: real time    0.7808
       DOS:  cpu time    0.0001: real time    0.0001
    --------------------------------------------
      LOOP:  cpu time    0.7789: real time    0.7809

 eigenvalue-minimisations  :    24
 total energy-change (2. order) :-0.6183630E+02  (-0.6183630E+02)
 number of electron       8.0000000 magnetization 
 augmentation part        8.0000000 magnetization 

 Free energy of the ion-electron system (eV)
  ---------------------------------------------------
  alpha Z        PSCENC =         0.24342290
  Ewald energy   TEWEN  =       128.66079061
  -Hartree energ DENC   =      -243.84969099
  -exchange      EXHF   =         0.00000000
  -V(xc)+E(xc)   XCENC  =        22.01194294
  PAW double counting   =       117.05815612     -117.66307307
  entropy T*S    EENTRO =        -0.00000000
  eigenvalues    EBANDS =      -111.15876400
  atomic energy  EATOM  =       197.04175453
  Solvation  Ediel_sol  =         0.00000000
  ---------------------------------------------------
  free energy    TOTEN  =        -7.65546095 eV

  energy without entropy =       -7.65546095  energy(sigma->0) =       -7.65546095


--------------------------------------------------------------------------------------------------------




--------------------------------------- Iteration      1(   3)  ---------------------------------------


     EDDAV:  cpu time    0.5552: real time    0.5565
       DOS:  cpu time    0.0001: real time    0.0001
    --------------------------------------------
      LOOP:  cpu time    0.5553: real time    0.5566

 eigenvalue-minimisations  :    16
 total energy-change (2. order) :-0.1818974E+02  (-0.1818974E+02)
 number of electron       8.0000000 magnetization 
 augmentation part        8.0000000 magnetization 

 Free energy of the ion-electron system (eV)
  ---------------------------------------------------
  alpha Z        PSCENC =         0.24342290
  Ewald energy   TEWEN  =       128.66079061
  -Hartree energ DENC   =      -243.84969099
  -exchange      EXHF   =         0.00000000
  -V(xc)+E(xc)   XCENC  =        22.01194294
  PAW double counting   =       117.05815612     -117.66307307
  entropy T*S    EENTRO =        -0.00000000
  eigenvalues    EBANDS =      -129.34850839
  atomic energy  EATOM  =       197.04175453
  Solvation  Ediel_sol  =         0.00000000
  ---------------------------------------------------
  free energy    TOTEN  =       -25.84520534 eV

  energy without entropy =      -25.84520534  energy(sigma->0) =      -25.84520534


--------------------------------------------------------------------------------------------------------




--------------------------------------- Iteration      1(   4)  ---------------------------------------


     EDDAV:  cpu time    0.6088: real time    0.6102
       DOS:  cpu time    0.0001: real time    0.0001
    --------------------------------------------
      LOOP:  cpu time    0.6088: real time    0.6103

 eigenvalue-minimisations  :    16
 total energy-change (2. order) :-0.1588694E+01  (-0.1588694E+01)
 number of electron       8.0000000 magnetization 
 augmentation part        8.0000000 magnetization 

 Free energy of the ion-electron system (eV)
  ---------------------------------------------------
  alpha Z        PSCENC =         0.24342290
  Ewald energy   TEWEN  =       128.66079061
  -Hartree energ DENC   =      -243.84969099
  -exchange      EXHF   =         0.00000000
  -V(xc)+E(xc)   XCENC  =        22.01194294
  PAW double counting   =       117.05815612     -117.66307307
  entropy T*S    EENTRO =        -0.00000000
  eigenvalues    EBANDS =      -130.93720240
  atomic energy  EATOM  =       197.04175453
  Solvation  Ediel_sol  =         0.00000000
  ---------------------------------------------------
  free energy    TOTEN  =       -27.43389935 eV

  energy without entropy =      -27.43389935  energy(sigma->0) =      -27.43389935


--------------------------------------------------------------------------------------------------------




--------------------------------------- Iteration      1(   5)  ---------------------------------------


     EDDAV:  cpu time    1.0348: real time    1.0373
       DOS:  cpu time    0.0001: real time    0.0001
    CHARGE:  cpu time    0.1352: real time    0.1355
    MIXING:  cpu time    0.0378: real time    0.0379
    --------------------------------------------
      LOOP:  cpu time    1.2080: real time    1.2108

 eigenvalue-minimisations  :    32
 total energy-change (2. order) :-0.4487431E-01  (-0.4487431E-01)
 number of electron       8.0000004 magnetization 
 augmentation part        0.2255319 magnetization 

 Broyden mixing:
  rms(total) = 0.87339E+00    rms(broyden)= 0.87321E+00
  rms(prec ) = 0.12322E+01
  weight for this iteration     100.00

 Free energy of the ion-electron system (eV)
  ---------------------------------------------------
  alpha Z        PSCENC =         0.24342290
  Ewald energy   TEWEN  =       128.66079061
  -Hartree energ DENC   =      -243.84969099
  -exchange      EXHF   =         0.00000000
  -V(xc)+E(xc)   XCENC  =        22.01194294
  PAW double counting   =       117.05815612     -117.66307307
  entropy T*S    EENTRO =        -0.00000000
  eigenvalues    EBANDS =      -130.98207671
  atomic energy  EATOM  =       197.04175453
  Solvation  Ediel_sol  =         0.00000000
  ---------------------------------------------------
  free energy    TOTEN  =       -27.47877366 eV

  energy without entropy =      -27.47877366  energy(sigma->0) =      -27.47877366


--------------------------------------------------------------------------------------------------------




--------------------------------------- Iteration      1(   6)  ---------------------------------------


    POTLOK:  cpu time    1.9815: real time    1.9863
    SETDIJ:  cpu time    0.0072: real time    0.0072
     EDDAV:  cpu time    0.8957: real time    0.8979
       DOS:  cpu time    0.0001: real time    0.0001
    CHARGE:  cpu time    0.1394: real time    0.1398
    MIXING:  cpu time    0.0404: real time    0.0405
    --------------------------------------------
      LOOP:  cpu time    3.0644: real time    3.0717

 eigenvalue-minimisations  :    24
 total energy-change (2. order) : 0.2895835E+01  (-0.8863934E+00)
 number of electron       8.0000004 magnetization 
 augmentation part        0.1974949 magnetization 

 Broyden mixing:
  rms(total) = 0.44561E+00    rms(broyden)= 0.44552E+00
  rms(prec ) = 0.55817E+00
  weight for this iteration     100.00

 eigenvalues of (default mixing * dielectric matrix)
  average eigenvalue GAMMA=   1.2001
  1.2001

 Free energy of the ion-electron system (eV)
  ---------------------------------------------------
  alpha Z        PSCENC =         0.24342290
  Ewald energy   TEWEN  =       128.66079061
  -Hartree energ DENC   =      -263.60384553
  -exchange      EXHF   =         0.00000000
  -V(xc)+E(xc)   XCENC  =        23.20936146
  PAW double counting   =       238.68343632     -239.46361725
  entropy T*S    EENTRO =        -0.00000000
  eigenvalues    EBANDS =      -109.35424124
  atomic energy  EATOM  =       197.04175453
  Solvation  Ediel_sol  =         0.00000000
  ---------------------------------------------------
  free energy    TOTEN  =       -24.58293820 eV

  energy without entropy =      -24.58293820  energy(sigma->0) =      -24.58293820


--------------------------------------------------------------------------------------------------------




--------------------------------------- Iteration      1(   7)  ---------------------------------------


    POTLOK:  cpu time    2.0584: real time    2.0633
    SETDIJ:  cpu time    0.0077: real time    0.0077
     EDDAV:  cpu time    0.9105: real time    0.9127
       DOS:  cpu time    0.0001: real time    0.0001
    CHARGE:  cpu time    0.1444: real time    0.1448
    MIXING:  cpu time    0.0412: real time    0.0413
    --------------------------------------------
      LOOP:  cpu time    3.1624: real time    3.1699

 eigenvalue-minimisations  :    24
 total energy-change (2. order) : 0.4831685E+00  (-0.7412445E-01)
 number of electron       8.0000004 magnetization 
 augmentation part        0.1891142 magnetization 

 Broyden mixing:
  rms(total) = 0.22609E+00    rms(broyden)= 0.22605E+00
  rms(prec ) = 0.27778E+00
  weight for this iteration     100.00

 eigenvalues of (default mixing * dielectric matrix)
  average eigenvalue GAMMA=   1.6930
  1.2522  2.1337

 Free energy of the ion-electron system (eV)
  ---------------------------------------------------
  alpha Z        PSCENC =         0.24342290
  Ewald energy   TEWEN  =       128.66079061
  -Hartree energ DENC   =      -273.68334749
  -exchange      EXHF   =         0.00000000
  -V(xc)+E(xc)   XCENC  =        23.96804592
  PAW double counting   =       366.28523627     -367.09345887
  entropy T*S    EENTRO =        -0.00000000
  eigenvalues    EBANDS =       -99.52221354
  atomic energy  EATOM  =       197.04175453
  Solvation  Ediel_sol  =         0.00000000
  ---------------------------------------------------
  free energy    TOTEN  =       -24.09976968 eV

  energy without entropy =      -24.09976968  energy(sigma->0) =      -24.09976968


--------------------------------------------------------------------------------------------------------




--------------------------------------- Iteration      1(   8)  ---------------------------------------


    POTLOK:  cpu time    2.1307: real time    2.1357
    SETDIJ:  cpu time    0.0075: real time    0.0075
     EDDAV:  cpu time    1.2568: real time    1.2597
       DOS:  cpu time    0.0001: real time    0.0001
    CHARGE:  cpu time    0.1428: real time    0.1431
    MIXING:  cpu time    0.0446: real time    0.0447
    --------------------------------------------
      LOOP:  cpu time    3.5825: real time    3.5910

 eigenvalue-minimisations  :    32
 total energy-change (2. order) : 0.1628846E+00  (-0.1699879E-01)
 number of electron       8.0000004 magnetization 
 augmentation part        0.1864979 magnetization 

 Broyden mixing:
  rms(total) = 0.26897E-01    rms(broyden)= 0.26874E-01
  rms(prec ) = 0.55405E-01
  weight for this iteration     100.00

 eigenvalues of (default mixing * dielectric matrix)
  average eigenvalue GAMMA=   1.5802
  2.1683  1.1327  1.4397

 Free energy of the ion-electron system (eV)
  ---------------------------------------------------
  alpha Z        PSCENC =         0.24342290
  Ewald energy   TEWEN  =       128.66079061
  -Hartree energ DENC   =      -280.64138543
  -exchange      EXHF   =         0.00000000
  -V(xc)+E(xc)   XCENC  =        24.58767153
  PAW double counting   =       478.68530911     -479.47978384
  entropy T*S    EENTRO =        -0.00000000
  eigenvalues    EBANDS =       -93.03466452
  atomic energy  EATOM  =       197.04175453
  Solvation  Ediel_sol  =         0.00000000
  ---------------------------------------------------
  free energy    TOTEN  =       -23.93688511 eV

  energy without entropy =      -23.93688511  energy(sigma->0) =      -23.93688511


--------------------------------------------------------------------------------------------------------




--------------------------------------- Iteration      1(   9)  ---------------------------------------


    POTLOK:  cpu time    2.1693: real time    2.1745
    SETDIJ:  cpu time    0.0077: real time    0.0077
     EDDAV:  cpu time    0.6453: real time    0.6469
       DOS:  cpu time    0.0001: real time    0.0001
    CHARGE:  cpu time    0.1322: real time    0.1325
    MIXING:  cpu time    0.0463: real time    0.0464
    --------------------------------------------
      LOOP:  cpu time    3.0009: real time    3.0081

 eigenvalue-minimisations  :    16
 total energy-change (2. order) : 0.7882246E-02  (-0.3847491E-03)
 number of electron       8.0000004 magnetization 
 augmentation part        0.1859854 magnetization 

 Broyden mixing:
  rms(total) = 0.15692E-01    rms(broyden)= 0.15688E-01
  rms(prec ) = 0.35256E-01
  weight for this iteration     100.00

 eigenvalues of (default mixing * dielectric matrix)
  average eigenvalue GAMMA=   1.8882
  2.9069  2.4477  0.9888  1.2096

 Free energy of the ion-electron system (eV)
  ---------------------------------------------------
  alpha Z        PSCENC =         0.24342290
  Ewald energy   TEWEN  =       128.66079061
  -Hartree energ DENC   =      -282.11611508
  -exchange      EXHF   =         0.00000000
  -V(xc)+E(xc)   XCENC  =        24.67072362
  PAW double counting   =       477.46699613     -478.25832836
  entropy T*S    EENTRO =        -0.00000000
  eigenvalues    EBANDS =       -91.63824722
  atomic energy  EATOM  =       197.04175453
  Solvation  Ediel_sol  =         0.00000000
  ---------------------------------------------------
  free energy    TOTEN  =       -23.92900286 eV

  energy without entropy =      -23.92900286  energy(sigma->0) =      -23.92900286


--------------------------------------------------------------------------------------------------------




--------------------------------------- Iteration      1(  10)  ---------------------------------------


    POTLOK:  cpu time    2.1592: real time    2.1644
    SETDIJ:  cpu time    0.0069: real time    0.0069
     EDDAV:  cpu time    1.0508: real time    1.0533
       DOS:  cpu time    0.0001: real time    0.0001
    CHARGE:  cpu time    0.1231: real time    0.1233
    MIXING:  cpu time    0.0429: real time    0.0430
    --------------------------------------------
      LOOP:  cpu time    3.3830: real time    3.3910

 eigenvalue-minimisations  :    32
 total energy-change (2. order) : 0.8269657E-02  (-0.5207553E-03)
 number of electron       8.0000004 magnetization 
 augmentation part        0.1857181 magnetization 

 Broyden mixing:
  rms(total) = 0.65593E-02    rms(broyden)= 0.65583E-02
  rms(prec ) = 0.16185E-01
  weight for this iteration     100.00

 eigenvalues of (default mixing * dielectric matrix)
  average eigenvalue GAMMA=   1.9943
  3.3493  1.0105  1.2129  2.1995  2.1995

 Free energy of the ion-electron system (eV)
  ---------------------------------------------------
  alpha Z        PSCENC =         0.24342290
  Ewald energy   TEWEN  =       128.66079061
  -Hartree energ DENC   =      -283.65730700
  -exchange      EXHF   =         0.00000000
  -V(xc)+E(xc)   XCENC  =        24.73775850
  PAW double counting   =       468.01221712     -468.79977695
  entropy T*S    EENTRO =        -0.00000000
  eigenvalues    EBANDS =       -90.15959291
  atomic energy  EATOM  =       197.04175453
  Solvation  Ediel_sol  =         0.00000000
  ---------------------------------------------------
  free energy    TOTEN  =       -23.92073321 eV

  energy without entropy =      -23.92073321  energy(sigma->0) =      -23.92073321


--------------------------------------------------------------------------------------------------------




--------------------------------------- Iteration      1(  11)  ---------------------------------------


    POTLOK:  cpu time    1.8865: real time    1.8910
    SETDIJ:  cpu time    0.0074: real time    0.0074
     EDDAV:  cpu time    0.5193: real time    0.5206
       DOS:  cpu time    0.0001: real time    0.0001
    CHARGE:  cpu time    0.1457: real time    0.1460
    MIXING:  cpu time    0.0448: real time    0.0449
    --------------------------------------------
      LOOP:  cpu time    2.6037: real time    2.6099

 eigenvalue-minimisations  :    16
 total energy-change (2. order) :-0.7796549E-02  (-0.2943661E-03)
 number of electron       8.0000004 magnetization 
 augmentation part        0.1854054 magnetization 

 Broyden mixing:
  rms(total) = 0.45835E-02    rms(broyden)= 0.45828E-02
  rms(prec ) = 0.89294E-02
  weight for this iteration     100.00

 eigenvalues of (default mixing * dielectric matrix)
  average eigenvalue GAMMA=   2.1171
  4.2714  2.9296  2.2206  1.2434  1.0188  1.0188

 Free energy of the ion-electron system (eV)
  ---------------------------------------------------
  alpha Z        PSCENC =         0.24342290
  Ewald energy   TEWEN  =       128.66079061
  -Hartree energ DENC   =      -284.53905298
  -exchange      EXHF   =         0.00000000
  -V(xc)+E(xc)   XCENC  =        24.76976604
  PAW double counting   =       469.50681681     -470.29556311
  entropy T*S    EENTRO =        -0.00000000
  eigenvalues    EBANDS =       -89.31646456
  atomic energy  EATOM  =       197.04175453
  Solvation  Ediel_sol  =         0.00000000
  ---------------------------------------------------
  free energy    TOTEN  =       -23.92852975 eV

  energy without entropy =      -23.92852975  energy(sigma->0) =      -23.92852975


--------------------------------------------------------------------------------------------------------




--------------------------------------- Iteration      1(  12)  ---------------------------------------


    POTLOK:  cpu time    1.9358: real time    1.9404
    SETDIJ:  cpu time    0.0071: real time    0.0072
     EDDAV:  cpu time    1.0158: real time    1.0182
       DOS:  cpu time    0.0001: real time    0.0001
    CHARGE:  cpu time    0.1169: real time    0.1172
    MIXING:  cpu time    0.0431: real time    0.0432
    --------------------------------------------
      LOOP:  cpu time    3.1189: real time    3.1263

 eigenvalue-minimisations  :    32
 total energy-change (2. order) :-0.3628522E-02  (-0.6885788E-04)
 number of electron       8.0000004 magnetization 
 augmentation part        0.1855147 magnetization 

 Broyden mixing:
  rms(total) = 0.25213E-02    rms(broyden)= 0.25213E-02
  rms(prec ) = 0.50673E-02
  weight for this iteration     100.00

 eigenvalues of (default mixing * dielectric matrix)
  average eigenvalue GAMMA=   2.2795
  5.1282  2.7479  2.7479  2.0261  1.0354  1.0354  1.2356

 Free energy of the ion-electron system (eV)
  ---------------------------------------------------
  alpha Z        PSCENC =         0.24342290
  Ewald energy   TEWEN  =       128.66079061
  -Hartree energ DENC   =      -284.28688975
  -exchange      EXHF   =         0.00000000
  -V(xc)+E(xc)   XCENC  =        24.74366334
  PAW double counting   =       466.81955587     -467.60800849
  entropy T*S    EENTRO =        -0.00000000
  eigenvalues    EBANDS =       -89.54644728
  atomic energy  EATOM  =       197.04175453
  Solvation  Ediel_sol  =         0.00000000
  ---------------------------------------------------
  free energy    TOTEN  =       -23.93215828 eV

  energy without entropy =      -23.93215828  energy(sigma->0) =      -23.93215828


--------------------------------------------------------------------------------------------------------




--------------------------------------- Iteration      1(  13)  ---------------------------------------


    POTLOK:  cpu time    1.7420: real time    1.7462
    SETDIJ:  cpu time    0.0072: real time    0.0072
     EDDAV:  cpu time    0.5948: real time    0.5962
       DOS:  cpu time    0.0001: real time    0.0001
    CHARGE:  cpu time    0.1262: real time    0.1265
    MIXING:  cpu time    0.0492: real time    0.0493
    --------------------------------------------
      LOOP:  cpu time    2.5195: real time    2.5255

 eigenvalue-minimisations  :    16
 total energy-change (2. order) :-0.3402179E-02  (-0.6467230E-04)
 number of electron       8.0000004 magnetization 
 augmentation part        0.1855036 magnetization 

 Broyden mixing:
  rms(total) = 0.19325E-02    rms(broyden)= 0.19323E-02
  rms(prec ) = 0.30147E-02
  weight for this iteration     100.00

 eigenvalues of (default mixing * dielectric matrix)
  average eigenvalue GAMMA=   2.3375
  5.9293  3.6316  2.3013  2.3013  1.3338  1.1358  1.0333  1.0333

 Free energy of the ion-electron system (eV)
  ---------------------------------------------------
  alpha Z        PSCENC =         0.24342290
  Ewald energy   TEWEN  =       128.66079061
  -Hartree energ DENC   =      -284.39346831
  -exchange      EXHF   =         0.00000000
  -V(xc)+E(xc)   XCENC  =        24.74643104
  PAW double counting   =       468.83488381     -469.62260960
  entropy T*S    EENTRO =        -0.00000000
  eigenvalues    EBANDS =       -89.44676545
  atomic energy  EATOM  =       197.04175453
  Solvation  Ediel_sol  =         0.00000000
  ---------------------------------------------------
  free energy    TOTEN  =       -23.93556046 eV

  energy without entropy =      -23.93556046  energy(sigma->0) =      -23.93556046


--------------------------------------------------------------------------------------------------------




--------------------------------------- Iteration      1(  14)  ---------------------------------------


    POTLOK:  cpu time    1.6403: real time    1.6443
    SETDIJ:  cpu time    0.0070: real time    0.0071
     EDDAV:  cpu time    1.0917: real time    1.0943
       DOS:  cpu time    0.0001: real time    0.0001
    CHARGE:  cpu time    0.1186: real time    0.1189
    MIXING:  cpu time    0.0481: real time    0.0482
    --------------------------------------------
      LOOP:  cpu time    2.9059: real time    2.9129

 eigenvalue-minimisations  :    32
 total energy-change (2. order) :-0.9981149E-03  (-0.1580345E-04)
 number of electron       8.0000004 magnetization 
 augmentation part        0.1854655 magnetization 

 Broyden mixing:
  rms(total) = 0.11278E-02    rms(broyden)= 0.11276E-02
  rms(prec ) = 0.17519E-02
  weight for this iteration     100.00

 eigenvalues of (default mixing * dielectric matrix)
  average eigenvalue GAMMA=   2.5542
  6.9425  4.1196  3.1192  2.4512  1.9448  1.3013  1.0127  1.0127  1.0843

 Free energy of the ion-electron system (eV)
  ---------------------------------------------------
  alpha Z        PSCENC =         0.24342290
  Ewald energy   TEWEN  =       128.66079061
  -Hartree energ DENC   =      -284.33258677
  -exchange      EXHF   =         0.00000000
  -V(xc)+E(xc)   XCENC  =        24.73896607
  PAW double counting   =       468.01445250     -468.80269803
  entropy T*S    EENTRO =        -0.00000000
  eigenvalues    EBANDS =       -89.50066039
  atomic energy  EATOM  =       197.04175453
  Solvation  Ediel_sol  =         0.00000000
  ---------------------------------------------------
  free energy    TOTEN  =       -23.93655857 eV

  energy without entropy =      -23.93655857  energy(sigma->0) =      -23.93655857


--------------------------------------------------------------------------------------------------------




--------------------------------------- Iteration      1(  15)  ---------------------------------------


    POTLOK:  cpu time    1.7040: real time    1.7081
    SETDIJ:  cpu time    0.0069: real time    0.0069
     EDDAV:  cpu time    0.5640: real time    0.5653
       DOS:  cpu time    0.0001: real time    0.0001
    CHARGE:  cpu time    0.1259: real time    0.1262
    MIXING:  cpu time    0.0535: real time    0.0536
    --------------------------------------------
      LOOP:  cpu time    2.4545: real time    2.4603

 eigenvalue-minimisations  :    16
 total energy-change (2. order) :-0.4450301E-03  (-0.5034737E-05)
 number of electron       8.0000004 magnetization 
 augmentation part        0.1854844 magnetization 

 Broyden mixing:
  rms(total) = 0.52312E-03    rms(broyden)= 0.52302E-03
  rms(prec ) = 0.72145E-03
  weight for this iteration     100.00

 eigenvalues of (default mixing * dielectric matrix)
  average eigenvalue GAMMA=   2.4344
  7.1742  4.5284  2.8858  2.3520  1.9896  1.3327  1.1653  0.9915  0.9915  0.9332

 Free energy of the ion-electron system (eV)
  ---------------------------------------------------
  alpha Z        PSCENC =         0.24342290
  Ewald energy   TEWEN  =       128.66079061
  -Hartree energ DENC   =      -284.34460734
  -exchange      EXHF   =         0.00000000
  -V(xc)+E(xc)   XCENC  =        24.73980687
  PAW double counting   =       467.75917567     -468.54710538
  entropy T*S    EENTRO =        -0.00000000
  eigenvalues    EBANDS =       -89.49024146
  atomic energy  EATOM  =       197.04175453
  Solvation  Ediel_sol  =         0.00000000
  ---------------------------------------------------
  free energy    TOTEN  =       -23.93700360 eV

  energy without entropy =      -23.93700360  energy(sigma->0) =      -23.93700360


--------------------------------------------------------------------------------------------------------




--------------------------------------- Iteration      1(  16)  ---------------------------------------


    POTLOK:  cpu time    1.6813: real time    1.6853
    SETDIJ:  cpu time    0.0071: real time    0.0072
     EDDAV:  cpu time    1.0952: real time    1.0978
       DOS:  cpu time    0.0002: real time    0.0002
    CHARGE:  cpu time    0.1152: real time    0.1155
    MIXING:  cpu time    0.0500: real time    0.0501
    --------------------------------------------
      LOOP:  cpu time    2.9490: real time    2.9561

 eigenvalue-minimisations  :    32
 total energy-change (2. order) :-0.2478789E-04  (-0.2398611E-06)
 number of electron       8.0000004 magnetization 
 augmentation part        0.1854772 magnetization 

 Broyden mixing:
  rms(total) = 0.28686E-03    rms(broyden)= 0.28682E-03
  rms(prec ) = 0.44391E-03
  weight for this iteration     100.00

 eigenvalues of (default mixing * dielectric matrix)
  average eigenvalue GAMMA=   2.5576
  7.9597  4.6365  3.5938  2.3474  2.3474  1.8108  1.3548  1.1316  1.0349  0.9582
  0.9582

 Free energy of the ion-electron system (eV)
  ---------------------------------------------------
  alpha Z        PSCENC =         0.24342290
  Ewald energy   TEWEN  =       128.66079061
  -Hartree energ DENC   =      -284.35745751
  -exchange      EXHF   =         0.00000000
  -V(xc)+E(xc)   XCENC  =        24.74071864
  PAW double counting   =       467.99833629     -468.78632143
  entropy T*S    EENTRO =        -0.00000000
  eigenvalues    EBANDS =       -89.47827242
  atomic energy  EATOM  =       197.04175453
  Solvation  Ediel_sol  =         0.00000000
  ---------------------------------------------------
  free energy    TOTEN  =       -23.93702839 eV

  energy without entropy =      -23.93702839  energy(sigma->0) =      -23.93702839


--------------------------------------------------------------------------------------------------------




--------------------------------------- Iteration      1(  17)  ---------------------------------------


    POTLOK:  cpu time    1.7588: real time    1.7630
    SETDIJ:  cpu time    0.0069: real time    0.0069
     EDDAV:  cpu time    0.5034: real time    0.5046
       DOS:  cpu time    0.0001: real time    0.0001
    CHARGE:  cpu time    0.1102: real time    0.1105
    MIXING:  cpu time    0.0447: real time    0.0448
    --------------------------------------------
      LOOP:  cpu time    2.4242: real time    2.4299

 eigenvalue-minimisations  :    16
 total energy-change (2. order) :-0.7005312E-04  (-0.6778775E-06)
 number of electron       8.0000004 magnetization 
 augmentation part        0.1854617 magnetization 

 Broyden mixing:
  rms(total) = 0.26499E-03    rms(broyden)= 0.26494E-03
  rms(prec ) = 0.36064E-03
  weight for this iteration     100.00

 eigenvalues of (default mixing * dielectric matrix)
  average eigenvalue GAMMA=   2.5550
  8.3606  5.1860  3.6948  2.6817  2.3173  1.8576  1.2893  1.2893  1.0632  1.0632
  0.9680  0.8889

 Free energy of the ion-electron system (eV)
  ---------------------------------------------------
  alpha Z        PSCENC =         0.24342290
  Ewald energy   TEWEN  =       128.66079061
  -Hartree energ DENC   =      -284.37366392
  -exchange      EXHF   =         0.00000000
  -V(xc)+E(xc)   XCENC  =        24.74131243
  PAW double counting   =       467.89836811     -468.68650460
  entropy T*S    EENTRO =        -0.00000000
  eigenvalues    EBANDS =       -89.46257851
  atomic energy  EATOM  =       197.04175453
  Solvation  Ediel_sol  =         0.00000000
  ---------------------------------------------------
  free energy    TOTEN  =       -23.93709844 eV

  energy without entropy =      -23.93709844  energy(sigma->0) =      -23.93709844


--------------------------------------------------------------------------------------------------------




--------------------------------------- Iteration      1(  18)  ---------------------------------------


    POTLOK:  cpu time    1.6696: real time    1.6735
    SETDIJ:  cpu time    0.0064: real time    0.0064
     EDDAV:  cpu time    0.8979: real time    0.9000
       DOS:  cpu time    0.0001: real time    0.0001
    CHARGE:  cpu time    0.1141: real time    0.1143
    MIXING:  cpu time    0.0542: real time    0.0543
    --------------------------------------------
      LOOP:  cpu time    2.7423: real time    2.7488

 eigenvalue-minimisations  :    32
 total energy-change (2. order) :-0.5097295E-05  (-0.2074520E-06)
 number of electron       8.0000004 magnetization 
 augmentation part        0.1854739 magnetization 

 Broyden mixing:
  rms(total) = 0.65364E-04    rms(broyden)= 0.65320E-04
  rms(prec ) = 0.10284E-03
  weight for this iteration     100.00

 eigenvalues of (default mixing * dielectric matrix)
  average eigenvalue GAMMA=   2.5120
  8.4767  5.2750  3.7302  2.8387  2.3391  1.7792  1.7792  1.2076  1.2076  1.0573
  1.0573  0.9078  0.9999

 Free energy of the ion-electron system (eV)
  ---------------------------------------------------
  alpha Z        PSCENC =         0.24342290
  Ewald energy   TEWEN  =       128.66079061
  -Hartree energ DENC   =      -284.36286997
  -exchange      EXHF   =         0.00000000
  -V(xc)+E(xc)   XCENC  =        24.74075500
  PAW double counting   =       467.91838007     -468.70643819
  entropy T*S    EENTRO =        -0.00000000
  eigenvalues    EBANDS =       -89.47289849
  atomic energy  EATOM  =       197.04175453
  Solvation  Ediel_sol  =         0.00000000
  ---------------------------------------------------
  free energy    TOTEN  =       -23.93710354 eV

  energy without entropy =      -23.93710354  energy(sigma->0) =      -23.93710354


--------------------------------------------------------------------------------------------------------




--------------------------------------- Iteration      1(  19)  ---------------------------------------


    POTLOK:  cpu time    1.7208: real time    1.7248
    SETDIJ:  cpu time    0.0064: real time    0.0064
     EDDAV:  cpu time    0.4693: real time    0.4704
       DOS:  cpu time    0.0001: real time    0.0001
    CHARGE:  cpu time    0.0947: real time    0.0949
    MIXING:  cpu time    0.0474: real time    0.0475
    --------------------------------------------
      LOOP:  cpu time    2.3387: real time    2.3442

 eigenvalue-minimisations  :    16
 total energy-change (2. order) :-0.3968234E-05  (-0.2766631E-07)
 number of electron       8.0000004 magnetization 
 augmentation part        0.1854703 magnetization 

 Broyden mixing:
  rms(total) = 0.40448E-04    rms(broyden)= 0.40442E-04
  rms(prec ) = 0.63820E-04
  weight for this iteration     100.00

 eigenvalues of (default mixing * dielectric matrix)
  average eigenvalue GAMMA=   2.5309
  8.5457  5.4259  4.0965  3.1857  2.5935  2.3071  1.7874  1.3033  1.2815  1.0253
  1.0253  0.9842  0.9356  0.9356

 Free energy of the ion-electron system (eV)
  ---------------------------------------------------
  alpha Z        PSCENC =         0.24342290
  Ewald energy   TEWEN  =       128.66079061
  -Hartree energ DENC   =      -284.36571556
  -exchange      EXHF   =         0.00000000
  -V(xc)+E(xc)   XCENC  =        24.74088672
  PAW double counting   =       467.96373625     -468.75180903
  entropy T*S    EENTRO =        -0.00000000
  eigenvalues    EBANDS =       -89.47017393
  atomic energy  EATOM  =       197.04175453
  Solvation  Ediel_sol  =         0.00000000
  ---------------------------------------------------
  free energy    TOTEN  =       -23.93710751 eV

  energy without entropy =      -23.93710751  energy(sigma->0) =      -23.93710751


--------------------------------------------------------------------------------------------------------




--------------------------------------- Iteration      1(  20)  ---------------------------------------


    POTLOK:  cpu time    1.6389: real time    1.6428
    SETDIJ:  cpu time    0.0064: real time    0.0064
     EDDAV:  cpu time    0.4593: real time    0.4604
       DOS:  cpu time    0.0001: real time    0.0001
    --------------------------------------------
      LOOP:  cpu time    2.1047: real time    2.1097

 eigenvalue-minimisations  :    16
 total energy-change (2. order) :-0.9910937E-06  (-0.7180574E-08)
 number of electron       8.0000004 magnetization 
 augmentation part        0.1854703 magnetization 

 Free energy of the ion-electron system (eV)
  ---------------------------------------------------
  alpha Z        PSCENC =         0.24342290
  Ewald energy   TEWEN  =       128.66079061
  -Hartree energ DENC   =      -284.36486036
  -exchange      EXHF   =         0.00000000
  -V(xc)+E(xc)   XCENC  =        24.74083640
  PAW double counting   =       467.97198581     -468.76004093
  entropy T*S    EENTRO =        -0.00000000
  eigenvalues    EBANDS =       -89.47099746
  atomic energy  EATOM  =       197.04175453
  Solvation  Ediel_sol  =         0.00000000
  ---------------------------------------------------
  free energy    TOTEN  =       -23.93710850 eV

  energy without entropy =      -23.93710850  energy(sigma->0) =      -23.93710850


--------------------------------------------------------------------------------------------------------




 average (electrostatic) potential at core
  the test charge radii are     0.5201  0.6991
  (the norm of the test charge is              1.0000)
       1 -41.7444       2 -41.3233       3 -41.5792       4 -41.4061       5 -57.9654



 E-fermi :  -8.6411     XC(G=0):  -0.7035     alpha+bet : -0.2117


 k-point     1 :       0.0000    0.0000    0.0000
  band No.  band energies     occupation 
      1     -16.9069      2.00000
      2      -9.5594      2.00000
      3      -9.3633      2.00000
      4      -8.9059      2.00000
      5      -0.5353      0.00000
      6       0.9777      0.00000
      7       1.0064      0.00000
      8       1.0662      0.00000


--------------------------------------------------------------------------------------------------------


 soft charge-density along one line, spin component           1
         0         1         2         3         4         5         6         7         8         9
 total charge-density along one line

 pseudopotential strength for first ion, spin component:           1
 -2.343  -4.037   0.000  -0.001   0.002
 -4.037  -6.872   0.001  -0.003   0.005
  0.000   0.001  -0.337  -0.000   0.001
 -0.001  -0.003  -0.000  -0.336  -0.002
  0.002   0.005   0.001  -0.002  -0.333
 total augmentation occupancy for first ion, spin component:           1
  3.675  -0.656  -0.079   0.218  -0.412
 -0.656   0.134   0.013  -0.041   0.075
 -0.079   0.013   0.013  -0.004   0.007
  0.218  -0.041  -0.004   0.022  -0.020
 -0.412   0.075   0.007  -0.020   0.049


------------------------ aborting loop because EDIFF is reached ----------------------------------------


    CHARGE:  cpu time    0.0948: real time    0.0950
    FORLOC:  cpu time    0.1072: real time    0.1075
    FORNL :  cpu time    0.1510: real time    0.1514
    STRESS:  cpu time    0.5548: real time    0.5561
    FORCOR:  cpu time    1.6546: real time    1.6586
    FORHAR:  cpu time    0.5223: real time    0.5235
    MIXING:  cpu time    0.0496: real time    0.0497
    OFIELD:  cpu time    0.0000: real time    0.0000

  FORCE on cell =-STRESS in cart. coord.  units (eV):
  Direction    XX          YY          ZZ          XY          YZ          ZX
  --------------------------------------------------------------------------------------
  Alpha Z     0.24342     0.24342     0.24342
  Ewald      45.33114    43.95954    39.37009     1.05605    -4.81323     4.55050
  Hartree    96.47224    93.22240    94.67009     0.39693    -0.88349     2.09033
  E(xc)     -27.21545   -27.18371   -27.22720     0.00851    -0.02645     0.03345
  Local    -200.13158  -195.37447  -193.75404    -1.33474     4.66646    -6.34203
  n-local   -16.02956   -15.83792   -15.86555     0.01646     0.01869     0.14222
  augment     0.10926     0.11205     0.12264    -0.00067     0.00778     0.00084
  Kinetic   101.65561    99.86312   102.01217    -0.47471     1.20859    -1.77286
  Fock        0.00000     0.00000     0.00000     0.00000     0.00000     0.00000
  -------------------------------------------------------------------------------------
  Total       0.43510    -0.99557    -0.42837    -0.33217     0.17834    -1.29756
  in kB       0.70047    -1.60280    -0.68965    -0.53477     0.28711    -2.08897
  external pressure =       -0.53 kB  Pullay stress =        0.00 kB


 VOLUME and BASIS-vectors are now :
 -----------------------------------------------------------------------------
  energy-cutoff  :      400.00
  volume of cell :      995.18
      direct lattice vectors                 reciprocal lattice vectors
     9.822807300  0.000000000  0.000000000     0.101803891  0.000633718 -0.002892377
    -0.063626100 10.221235300  0.000000000     0.000000000  0.097835533 -0.002573303
     0.279991800  0.260710800  9.912079000     0.000000000 -0.000000000  0.100887009

  length of vectors
     9.822807300 10.221433331  9.919459443     0.101846942  0.097869369  0.100887009


 FORCES acting on ions
    electron-ion (+dipol)            ewald-force                    non-local-force                 convergence-correction
 -----------------------------------------------------------------------------------------------
   -.474E+02 -.880E+01 0.253E+02   0.538E+02 0.974E+01 -.289E+02   -.525E+01 -.104E+01 0.274E+01   -.218E-04 0.283E-05 0.545E-05
   0.280E+02 0.361E+02 0.243E+02   -.303E+02 -.391E+02 -.264E+02   0.276E+01 0.359E+01 0.243E+01   0.127E-04 0.595E-05 0.249E-04
   0.250E+02 -.469E+02 0.184E+01   -.279E+02 0.519E+02 -.168E+01   0.253E+01 -.497E+01 0.326E+00   0.734E-05 -.757E-05 0.163E-04
   -.123E+02 0.175E+02 -.475E+02   0.132E+02 -.189E+02 0.520E+02   -.137E+01 0.182E+01 -.474E+01   -.278E-04 0.779E-05 -.217E-04
   0.787E+01 0.297E+01 -.446E+01   -.890E+01 -.363E+01 0.499E+01   0.324E+00 -.277E+00 -.195E+00   -.590E-04 0.324E-04 0.430E-04
 -----------------------------------------------------------------------------------------------
   0.101E+01 0.871E+00 -.551E+00   0.178E-14 0.178E-14 -.711E-14   -.101E+01 -.870E+00 0.551E+00   -.886E-04 0.414E-04 0.679E-04


 POSITION                                       TOTAL-FORCE (eV/Angst)
 -----------------------------------------------------------------------------------
      5.95896      5.06386      3.92276         1.144428     -0.099316     -0.862380
      4.43228      4.10857      3.88164         0.455271      0.584978      0.318856
      4.52808      5.85768      4.37240        -0.378501      0.015760      0.487197
      5.30604      4.51902      5.42786        -0.515109      0.434000     -0.276279
      5.03391      4.89190      4.41490        -0.706088     -0.935422      0.332606
 -----------------------------------------------------------------------------------
    total drift:                               -0.000784      0.000644     -0.000118


--------------------------------------------------------------------------------------------------------



  FREE ENERGIE OF THE ION-ELECTRON SYSTEM (eV)
  ---------------------------------------------------
  free  energy   TOTEN  =       -23.93710850 eV

  energy  without entropy=      -23.93710850  energy(sigma->0) =      -23.93710850



--------------------------------------------------------------------------------------------------------


    POTLOK:  cpu time    1.5774: real time    1.5811


--------------------------------------------------------------------------------------------------------


     LOOP+:  cpu time   52.7199: real time   52.8500
    4ORBIT:  cpu time    0.0000: real time    0.0000

 total amount of memory used by VASP MPI-rank0   274695. kBytes
=======================================================================

   base      :      30000. kBytes
   nonlr-proj:       1240. kBytes
   fftplans  :      86584. kBytes
   grid      :     154542. kBytes
   one-center:         15. kBytes
   wavefun   :       2314. kBytes

  
  
 General timing and accounting informations for this job:
 ========================================================
  
                  Total CPU time used (sec):       54.653
                            User time (sec):       53.210
                          System time (sec):        1.442
                         Elapsed time (sec):       54.793
  
                   Maximum memory used (kb):      390004.
                   Average memory used (kb):           0.
  
                          Minor page faults:       274417
                          Major page faults:            0
                 Voluntary context switches:          137
