1.062810000000000059e+02 6.319279999999999831e+01 1.311979999999999924e+00 1.042890000000000015e+02 6.312169999999999703e+01 1.653100000000000014e+00 1.052379999999999995e+02 6.469079999999999586e+01 1.957899999999999974e+00 1.056620000000000061e+02 6.340140000000000242e+01 3.096319999999999961e+00 1.071329999999999956e+02 6.636620000000000630e+01 3.007649999999999935e+00 1.073119999999999976e+02 6.469320000000000448e+01 3.199590000000000156e+00 1.071629999999999967e+02 6.570889999999999986e+01 4.649420000000000108e+00 1.086520000000000010e+02 6.572610000000000241e+01 3.677119999999999944e+00 1.053289999999999935e+02 6.351939999999999742e+01 2.002530000000000143e+00 1.075960000000000036e+02 6.562900000000000489e+01 3.539120000000000044e+00
1.236290000000000049e+02 5.161999999999999744e+01 1.629919999999999902e+01 1.245370000000000061e+02 5.165390000000000015e+01 1.434350000000000058e+01 1.242639999999999958e+02 5.321139999999999759e+01 1.483239999999999981e+01 1.228379999999999939e+02 5.221329999999999671e+01 1.448249999999999993e+01 1.253419999999999987e+02 5.368240000000000123e+01 1.255369999999999919e+01 1.234969999999999999e+02 5.390939999999999799e+01 1.225609999999999999e+01 1.242339999999999947e+02 5.250419999999999732e+01 1.221710000000000029e+01 1.247030000000000030e+02 5.310470000000000113e+01 1.076440000000000019e+01 1.238520000000000039e+02 5.212800000000000011e+01 1.509650000000000070e+01 1.244839999999999947e+02 5.347229999999999706e+01 1.182639999999999958e+01
7.130259999999999820e+01 5.976840000000000153e+00 6.223949999999999960e+01 7.081719999999999970e+01 5.646379999999999733e+00 6.060240000000000293e+01 7.207479999999999620e+01 6.532580000000000275e+00 6.077539999999999765e+01 7.081229999999999336e+01 7.485570000000000057e+00 6.114289999999999736e+01 7.586419999999999675e+01 5.664539999999999687e+00 6.184000000000000341e+01 7.414300000000000068e+01 5.996559999999999668e+00 6.195130000000000337e+01 7.481399999999999295e+01 6.022190000000000154e+00 6.035829999999999984e+01 7.486520000000000152e+01 7.370709999999999873e+00 6.178379999999999939e+01 7.118800000000000239e+01 6.453199999999999825e+00 6.126140000000000185e+01 7.502230000000000132e+01 6.310430000000000206e+00 6.148270000000000124e+01
1.063629999999999995e+02 6.659659999999999513e+01 9.411320000000000618e+01 1.044710000000000036e+02 6.590300000000000580e+01 9.365900000000000603e+01 1.045049999999999955e+02 6.660150000000000148e+01 9.501550000000000296e+01 1.053110000000000070e+02 6.521909999999999741e+01 9.497520000000000095e+01 1.012750000000000057e+02 6.377139999999999986e+01 9.486769999999999925e+01 1.024680000000000035e+02 6.285289999999999822e+01 9.594140000000000157e+01 1.025330000000000013e+02 6.448650000000000659e+01 9.534229999999999450e+01 1.028790000000000049e+02 6.338880000000000337e+01 9.416400000000000148e+01 1.053689999999999998e+02 6.609369999999999834e+01 9.436270000000000380e+01 1.022510000000000048e+02 6.341049999999999898e+01 9.493590000000000373e+01
1.013700000000000045e+02 5.088219999999999743e+01 1.343839999999999861e+02 1.019090000000000060e+02 5.019219999999999970e+01 1.357400000000000091e+02 1.006209999999999951e+02 4.943670000000000186e+01 1.348979999999999961e+02 1.002259999999999991e+02 5.080140000000000100e+01 1.358919999999999959e+02 1.031470000000000056e+02 4.699459999999999837e+01 1.362359999999999900e+02 1.048190000000000026e+02 4.771020000000000039e+01 1.354759999999999991e+02 1.031889999999999930e+02 4.790209999999999724e+01 1.349079999999999870e+02 1.039929999999999950e+02 4.636249999999999716e+01 1.347079999999999984e+02 1.009869999999999948e+02 5.039719999999999800e+01 1.352429999999999950e+02 1.038569999999999993e+02 4.718139999999999645e+01 1.353379999999999939e+02
