-2.204400616707599056e+03
-2.203020824363195061e+03
-2.204344793041241701e+03
-2.203115739697505887e+03
-2.204789226756832704e+03
