-2.671576540081751272e+00 6.851823883721810393e-01 1.512781483632365198e+00 2.161243322197634598e+00 1.978980837929778247e-01 9.280707188636134752e-01 2.193996556654612962e-01 -2.068517815994704190e+00 -3.770015561895609379e-01 -1.056115626378860695e+00 -6.355836445644306165e-01 -1.554136652958850950e+00 -9.254222252782452474e-01 2.228813358679416101e+00 -1.709661050534839744e+00 -2.549702023553325758e-01 -1.904474684454384725e+00 -8.342825756362848288e-01 7.462405399170306541e-01 -1.575181339761807242e-01 -2.174657951206385942e+00 7.643883645487081768e-01 1.885311428256252475e-01 -3.992712709060057819e-01 1.154888213450804724e+00 1.692670890908256842e+00 -5.944540638479637318e-01 -1.380755531075168463e-01 -2.270015855887564660e-01 5.202612918783913187e+00
1.248814219241037415e+00 1.988826415501200540e+00 -4.076858494726630866e+00 -5.228649299942998985e-01 -9.727138151845354797e-01 1.414389111327341464e+00 -8.361135097708467523e-01 -1.608110591955757007e+00 2.194141052664221103e+00 1.654663401018614532e+00 -6.118263922800306620e-01 1.644084390498777859e+00 -7.833916466949217838e-01 4.596175353487131354e-01 -1.705283438508512495e+00 1.685549140251055400e+00 4.534611825863124612e-01 -1.896025575969417343e+00 -7.282290351862330362e-03 -1.404402380180696630e+00 4.240335674992305459e-01 -3.825617729237085762e-01 1.919897396620154462e+00 1.174921376764433978e+00 -1.559597110882094517e+00 1.168117363062169067e+00 -1.072476431321601087e+00 -4.972154998929734782e-01 -1.392866816361664872e+00 1.899074493194223612e+00
-7.405420492434391933e-02 7.957016782722143855e-01 1.409079834282478128e-01 -1.245756508842692512e+00 6.951961161042508053e-01 2.156079980980269428e-01 3.705112016722812651e+00 3.405258268459038784e-01 -7.846451110117247385e-01 -8.507898306271974853e-01 -8.640083358705943350e-01 5.439126506992373322e-01 -4.150686442554079036e-01 1.270811345577790297e+00 -4.425424264666592833e-02 -1.547592732073881150e+00 -1.562624327994425855e+00 9.656175184507348463e-01 6.697382332042738362e-01 1.215763045325101377e+00 1.971558885242649994e+00 1.558251652486576377e+00 -2.601412054607519231e-01 -8.321435718954720562e-01 -1.593377398292777469e+00 -9.593772962962804352e-01 -1.247921532149648405e-01 -2.064625833973623426e-01 -6.718469493473430143e-01 -2.051769957150069601e+00
-1.948043882318131192e+00 -6.679435002052150905e-01 2.921851239189618421e-01 2.519459522962946618e+00 3.955884224333512666e-02 -7.154657180841365038e-01 2.713382732362072058e+00 7.654450880353467213e-01 -4.709302873493699249e-01 1.387738544994318479e+00 -1.131026471525292676e+00 1.106580266380844946e-01 -2.249873934901222672e+00 -8.791608250717759532e-01 -1.032081929059708081e+00 -4.583939986751813800e-01 2.527439353660125287e-01 -2.443947348159446253e+00 3.474614296188408558e-01 -1.384257219604103639e+00 -3.674755667675040360e-01 2.145044239657106999e+00 -1.191519854503049869e+00 -3.493554432035760993e+00 -4.671470887120354298e+00 9.935600642291005924e-01 7.832165031330974303e-01 2.146961305754692129e-01 3.202599889613575002e+00 7.337395679187849851e+00
-5.722209616435619539e-01 1.433748285602558736e+00 -1.037518732831912427e+00 5.466180170912342540e-01 -2.753979271927078920e-01 1.205587852301155616e+00 -1.800366800771434905e-01 -3.908204654928114086e-01 -1.163252526946503829e-01 1.275822631741628001e-02 8.517265864304137679e-01 -1.004177332767139941e-01 2.146555534220236705e+00 -3.825630070533280191e-01 -7.178075818811432418e-01 -5.012168566515763368e-01 -4.495317138780415278e-01 7.083782145238745054e-01 -1.467540554354963833e-01 5.748418415786953339e-01 -1.293098595219244418e+00 -9.854062212555818670e-03 -1.593670709765662385e+00 -9.463764606645107547e-01 1.893188260552276236e-01 -1.613962886033170063e+00 4.786756848409239734e-02 -1.485167987663780664e+00 1.845630047226121118e+00 2.249710772681120297e+00
