1.161629999999999967e+02 6.520799999999999841e+01 6.595029999999999859e+01 1.165010000000000048e+02 6.458289999999999509e+01 6.511950000000000216e+01 1.141359999999999957e+02 6.869880000000000564e+01 6.763060000000000116e+01 1.150580000000000069e+02 6.916710000000000491e+01 6.734109999999999729e+01
7.620029999999999859e+01 3.037770000000000081e+01 1.278899999999999970e+01 7.469790000000000418e+01 3.196010000000000062e+01 1.123010000000000019e+01 7.381570000000000675e+01 3.110960000000000036e+01 1.216719999999999935e+01 7.525660000000000593e+01 3.047289999999999921e+01 1.188219999999999921e+01
1.071159999999999997e+02 4.757319999999999993e+01 9.287940000000000751e+00 1.074530000000000030e+02 4.935159999999999769e+01 8.087049999999999628e+00 1.070139999999999958e+02 4.895280000000000342e+01 9.250750000000000028e+00 1.051179999999999950e+02 4.793099999999999739e+01 9.764079999999999870e+00
1.140120000000000005e+02 1.201269999999999953e+02 1.392920000000000016e+02 1.144170000000000016e+02 1.213599999999999994e+02 1.396409999999999911e+02 1.161760000000000019e+02 1.206089999999999947e+02 1.377069999999999936e+02 1.151119999999999948e+02 1.208730000000000047e+02 1.379540000000000077e+02
1.223299999999999983e+02 2.214659999999999940e+01 3.008270000000000000e+00 1.219800000000000040e+02 2.338670000000000115e+01 1.802810000000000024e+00 1.230490000000000066e+02 2.215230000000000032e+01 1.308920000000000083e+00 1.236860000000000070e+02 2.236410000000000053e+01 3.883309999999999818e+00
1.267680000000000007e+02 3.421399999999999864e+01 1.726170000000000115e+01 1.276250000000000000e+02 3.362030000000000030e+01 1.660439999999999827e+01 1.285540000000000020e+02 3.337859999999999872e+01 1.845589999999999975e+01 1.290649999999999977e+02 3.439789999999999992e+01 1.804629999999999868e+01
7.008490000000000464e+01 5.762990000000000279e+00 2.741550000000000153e+01 7.091689999999999827e+01 5.341450000000000031e+00 2.677009999999999934e+01 6.974620000000000175e+01 2.529970000000000052e+00 2.828470000000000084e+01 6.898220000000000596e+01 3.043870000000000076e+00 2.904050000000000153e+01
7.791440000000000055e+01 1.043500000000000050e+01 1.553589999999999982e+01 7.714249999999999829e+01 1.012490000000000023e+01 1.484890000000000043e+01 7.388339999999999463e+01 1.003289999999999971e+01 1.735310000000000130e+01 7.435070000000000334e+01 9.217950000000000088e+00 1.793039999999999878e+01
1.266539999999999964e+02 3.437819999999999965e+01 1.763710000000000022e+01 1.280269999999999868e+02 3.316340000000000288e+01 1.693110000000000070e+01 1.277680000000000007e+02 3.288499999999999801e+01 1.843609999999999971e+01 1.289079999999999870e+02 3.462039999999999651e+01 1.729400000000000048e+01
1.221889999999999930e+02 2.197850000000000037e+01 2.346940000000000026e+00 1.228719999999999999e+02 2.290090000000000003e+01 2.250770000000000159e+00 1.223430000000000035e+02 2.196839999999999904e+01 3.662189999999999834e+00 1.243880000000000052e+02 2.214499999999999957e+01 3.135139999999999816e+00
