-5.960512361017341391e+03
-5.949742047292692405e+03
-5.946355274894413014e+03
-5.954657654229238688e+03
-5.945170844204998502e+03
-5.957092056245482127e+03
-5.960068548749946785e+03
-5.960546290296200823e+03
-5.944409343547484241e+03
-5.947484859701489768e+03
