-6.152873545315248327e-01 1.140187415690335326e+00 1.507485164948506151e+00 6.140018542666840773e-01 -1.136388044812779441e+00 -1.506648836443071238e+00 -4.729712394919188156e+00 -2.403574031789353693e+00 1.485047454337616202e+00 4.730997895184028579e+00 2.399774712333865079e+00 -1.485883782843051115e+00
-4.824678874822736496e+00 -1.701132494955620855e-01 -5.501581744688486708e+00 -3.121093444404359651e+00 -4.787356224027744744e+00 4.054217821215411632e+00 6.186279788607108365e+00 1.913918347146412069e+00 -4.775052208832345713e+00 1.759492530619987782e+00 3.043551177798961671e+00 6.222416132305420788e+00
-4.434059983834432117e+00 2.036830201042037380e+00 1.522748057328559446e+00 -2.004994182002634684e+00 -1.275241459535010558e+00 6.414950277395808698e+00 1.375205033111773778e+00 -5.002021964161335044e-01 -6.990182618154920036e+00 5.063849184147360738e+00 -2.613864936688261031e-01 -9.475157165694486627e-01
2.360312235044980778e+00 1.331754656219345101e+01 8.089312598289456702e+00 -6.702789311015806994e+00 -1.422401461339991968e+01 3.307687466526084141e-01 -1.523596264331581462e-01 -2.078030538523351900e-01 9.550425188521610709e-01 4.494836753826051634e+00 1.114271105058806555e+00 -9.375123863794225798e+00
5.620689136921876106e+00 2.095886080123494200e+00 1.326216309290494832e+00 6.565405179027576921e+00 -8.244299378149980484e+00 -1.243418861655218866e+00 -6.325317911395714532e+00 6.894136994743312208e+00 4.107981701066676372e+00 -5.860776353131671002e+00 -7.457236967168261454e-01 -4.190779148701953005e+00
6.737458274596614949e+00 -5.703604392513740962e+00 -7.902794835093799541e+00 -1.095998515064811407e+01 5.730127586385624916e+00 3.837978822927382350e+00 6.897439011384237872e+00 8.995859942323976455e+00 -1.401511740079582458e+00 -2.674912135332737861e+00 -9.022383136195861297e+00 5.466327700823931934e+00
2.973204195407255668e+00 -1.473813789476738023e+00 -2.314734902602149091e+00 -2.950545472750352616e+00 1.528037022656769439e+00 2.283585830962162166e+00 -6.326016583026515150e+00 4.221244666798977363e+00 6.260721304543683807e+00 6.303357860369612098e+00 -4.275467848556941064e+00 -6.229572232903697326e+00
3.262212001198922628e+00 1.311185176168557565e+00 2.900190258907958007e+00 -3.262602243269000724e+00 -1.311134268321755947e+00 -2.899059127689681326e+00 -1.909190807950908730e-01 3.352757366007059758e-01 -2.372211044348665199e-01 1.913093228651686906e-01 -3.353266444475075381e-01 2.360899732165897547e-01
5.977632024452339543e+00 -3.772195240491795776e+00 -1.160386260905373473e-01 -1.235413525612572005e+00 3.256311421800149208e+00 5.346322016493799012e+00 4.792539774117627882e-01 5.362270724987784121e+00 -6.574774536832100225e+00 -5.221472527673598485e+00 -4.846386906296137553e+00 1.344491095006771442e+00
-7.280765173340982166e+00 -7.287396820273065678e+00 -4.901193574253755458e-01 7.891464342479864058e+00 6.089742724496630011e+00 4.258955605625483476e-01 3.188169829038368430e+00 8.727430425183255180e-02 -3.928337422786445238e-03 -3.798868998177250322e+00 1.110379791524603199e+00 6.815208286354616785e-02
