1.372160000000000082e+02 8.237560000000000571e+01 5.520280000000000342e+01 1.378830000000000098e+02 8.217199999999999704e+01 5.375209999999999866e+01 1.364770000000000039e+02 8.119129999999999825e+01 5.418589999999999662e+01 1.381179999999999950e+02 8.072459999999999525e+01 5.475209999999999866e+01 1.374250000000000114e+02 8.160630000000000450e+01 5.448230000000000217e+01 1.370519999999999925e+02 8.252689999999999770e+01 5.923619999999999663e+01 1.378470000000000084e+02 8.321559999999999491e+01 5.921809999999999974e+01 1.361850000000000023e+02 7.908310000000000173e+01 6.208919999999999817e+01 1.362529999999999859e+02 7.832349999999999568e+01 6.132439999999999714e+01
1.077729999999999961e+02 1.370169999999999959e+02 3.589880000000000138e+01 1.062579999999999956e+02 1.358880000000000052e+02 3.629200000000000159e+01 1.063889999999999958e+02 1.370140000000000100e+02 3.486240000000000094e+01 1.061830000000000069e+02 1.377489999999999952e+02 3.643410000000000082e+01 1.066179999999999950e+02 1.368089999999999975e+02 3.591499999999999915e+01 1.017090000000000032e+02 1.365310000000000059e+02 3.294769999999999754e+01 1.022969999999999970e+02 1.366899999999999977e+02 3.203470000000000084e+01 1.070139999999999958e+02 1.364619999999999891e+02 3.146330000000000027e+01 1.063479999999999990e+02 1.369499999999999886e+02 3.217439999999999856e+01
