-7.062725604907686829e+03
-7.062960670930365268e+03
