1.276468492909130781e-01 -2.149569433017091413e-01 1.339559255937184501e+00 9.573765664949114296e-01 8.273326261065219178e-01 -2.391862707343688221e+00 -3.946119173719758733e-01 -1.302616614220842572e-01 -5.111236264832953458e-01 -1.011866577361010044e+00 1.656928594513014330e+00 1.829902093667812313e-01 3.218096855244780841e-01 -2.138616481222566534e+00 1.382916954837400736e+00 -7.628703336947395108e+00 -6.610734451416902857e+00 1.749002840231357325e-01 7.628560229333608333e+00 6.609893546347462845e+00 -1.766896177051094363e-01 -2.725093439742927726e-01 3.047576085864468709e+00 3.066710751393084244e+00 2.722978450107626514e-01 -3.047161264046136964e+00 -3.067401504025493608e+00
-1.940105086430798709e+00 -1.042590028548495251e+00 6.181783031650438520e-01 -8.436911170562257090e-02 -9.095483358924384421e-01 3.981162798484200183e-01 -4.495084196814747579e-01 -6.464615201404401157e-01 2.537097960594203450e-02 4.811056860615852693e-01 -1.758115653341241647e+00 -3.450772454603009409e-01 1.993094549945870542e+00 4.355415639478881218e+00 -6.632999846679679123e-01 -6.815883458100581160e-01 -1.831077602130321003e-01 1.056622956496582333e+00 6.864797671346087871e-01 1.834027171920762922e-01 -1.056284599292587778e+00 1.580672393815199195e+00 -1.159399779962907662e+00 -1.688965879524519931e+00 -1.585781381907241938e+00 1.160404824271732416e+00 1.655339138407321053e+00
