4.406213890000000077e+00 0.000000000000000000e+00 0.000000000000000000e+00 5.876830000000000422e-03 4.637282360000000381e+00 0.000000000000000000e+00 -5.762790999999999747e-02 -6.737654999999999339e-02 4.524039939999999760e+00
4.744454440000000162e+00 0.000000000000000000e+00 0.000000000000000000e+00 1.305289900000000114e-01 4.860240870000000157e+00 0.000000000000000000e+00 -7.670731000000000077e-02 1.257499999999999937e-04 4.892875939999999702e+00
4.677628010000000280e+00 0.000000000000000000e+00 0.000000000000000000e+00 -9.521129000000000397e-02 4.754007310000000430e+00 0.000000000000000000e+00 -1.195406200000000002e-01 -1.088262499999999994e-01 4.618807910000000128e+00
