4.410330000000000084e+00 4.624019999999999797e+00 1.331000000000000065e-02 4.356849999999999667e+00 2.289839999999999876e+00 2.193369999999999820e+00 2.209970000000000212e+00 2.339739999999999931e+00 3.214999999999999802e-02 2.190129999999999910e+00 4.585219999999999629e+00 2.280159999999999965e+00
1.480200000000000127e-01 4.849059999999999704e+00 7.040000000000000251e-03 2.447540000000000049e+00 4.852389999999999759e+00 2.434349999999999792e+00 2.443540000000000045e+00 2.427869999999999973e+00 1.379999999999999933e-03 2.872999999999999859e-02 2.446180000000000021e+00 2.445219999999999949e+00
2.187139999999999862e+00 2.286319999999999908e+00 4.616209999999999702e+00 -1.001299999999999968e-01 2.317450000000000010e+00 2.319550000000000001e+00 2.188919999999999977e+00 4.686860000000000248e+00 2.291069999999999940e+00 4.652070000000000149e+00 5.800000000000000034e-04 4.210000000000000200e-03
