-6.095490629999999577e+00
-5.746722369999999636e+00
-5.993886189999999559e+00
