7.887930000000000064e+01 1.324780000000000086e+02 9.840560000000000418e-01 7.997329999999999472e+01 1.315310000000000059e+02 6.472799999999999387e-02 8.049630000000000507e+01 1.334360000000000070e+02 4.631660000000000221e-01 7.939719999999999800e+01 1.336649999999999920e+02 -1.080999999999999961e+00 7.988150000000000261e+01 1.325250000000000057e+02 5.831349999999999589e-01
