-4.440532068091137402e-02 1.000727940480828027e+00 7.142580194073875344e-01 1.116002486070734712e+00 1.295730890853357575e+00 2.923372818166242171e-01 4.923632107617724463e-02 -1.076771150975156077e+00 8.688082259150370357e-01 3.157043434530138470e-01 -1.741745849536693092e+00 2.008632704653124268e+00 -1.436537778496946860e+00 5.220581691776637889e-01 -3.884036283214240548e+00
