-1.132486398349693900e+03
-1.132674167987104056e+03
