-3.580783536290282232e+00 -1.865725585507599371e+00 2.787935782763003356e+00 2.741427710898850290e+00 -1.987890379606928937e+00 -2.258083416551750933e+00 -5.226221149916766562e-01 6.522150838482987378e-01 -1.503936939448504706e+00 -1.445773078971560044e-01 2.943000621321956167e-01 -3.549693600027892804e-01 -8.961580809436705403e-03 -7.924037239746202221e-01 3.813579720396743422e+00 3.581649843861055782e+00 1.866778606605379753e+00 -2.789306900770192055e+00 -2.066133014771354581e+00 1.832725885081206929e+00 3.047811136134903065e-01
-5.868937857993242746e-01 -1.036591233000842133e-01 4.868524363455033033e+00 -5.293725983216988062e-01 1.186468664814850582e+00 -2.172381136324736950e+00 -4.833781300674990788e-01 -1.860687457024538860e+00 2.871835205304297478e+00 -5.250340156445862938e-01 7.256300610518444660e-01 -2.730405545001502343e+00 -7.705558244776836707e-01 -2.877473480736874034e-01 8.636850453323707821e-02 5.867566431453649090e-01 1.031836234421306259e-01 -4.872004043339088319e+00 2.308477711165427326e+00 2.368115790894850525e-01 1.948062548528625371e+00
