LAMMPS (16 Mar 2018)
clear
units 	metal
dimension	3
boundary	p	p    p
atom_style	atomic
box         tilt large
read_data   conf.lmp
  triclinic box = (0 0 0) to (6.79965 4.20619 21.4039) with tilt (-1.45707 -8.25672 37.1828)
WARNING: Triclinic box skew is large (../domain.cpp:197)
  1 by 1 by 1 MPI processor grid
  reading atoms ...
  24 atoms
mass            1 1
neigh_modify    every 1 delay 0 check no
pair_style deepmd frozen_model.pb
pair_coeff
compute         mype all pe
thermo          100
thermo_style    custom step pe pxx pyy pzz pxy pxz pyz lx ly lz vol c_mype
dump            1 all custom 100 dump.relax id type xs ys zs fx fy fz
min_style       cg
minimize        1.000000e-12 1.000000e-06 5000 500000
WARNING: Using 'neigh_modify every 1 delay 0 check yes' setting during minimization (../min.cpp:168)
Neighbor list info ...
  update every 1 steps, delay 0 steps, check yes
  max neighbors/atom: 2000, page size: 100000
  master list distance cutoff = 10
  ghost atom cutoff = 10
  binsize = 5, bins = 4 9 5
  1 neighbor lists, perpetual/occasional/extra = 1 0 0
  (1) pair deepmd, perpetual
      attributes: , newton on
      pair build: full/bin/atomonly
      stencil: full/bin/3d
      bin: standard
Per MPI rank memory allocation (min/avg/max) = 5.239 | 5.239 | 5.239 Mbytes
Step PotEng Pxx Pyy Pzz Pxy Pxz Pyz Lx Ly Lz Volume c_mype 
       0   -83.589826   -17190.176   -19412.047   -11751.397   -1006.1299   -651.82159    374.94717    6.7996524    4.2061942    21.403863    612.16459   -83.589826 
      26   -83.771724   -10528.779   -9568.5522 -0.025941404   -348.37558    0.1354331 -0.064789666    6.7996524    4.2061942    21.403863    612.16459   -83.771724 
Loop time of 3.03689 on 1 procs for 26 steps with 24 atoms

293.4% CPU use with 1 MPI tasks x no OpenMP threads

Minimization stats:
  Stopping criterion = energy tolerance
  Energy initial, next-to-last, final = 
        -83.5898264091     -83.7717241371     -83.7717241371
  Force two-norm initial, final = 1.34894 1.00775e-05
  Force max component initial, final = 0.636082 2.72218e-06
  Final line search alpha, max atom move = 1 2.72218e-06
  Iterations, force evaluations = 26 51

MPI task timing breakdown:
Section |  min time  |  avg time  |  max time  |%varavg| %total
---------------------------------------------------------------
Pair    | 3.035      | 3.035      | 3.035      |   0.0 | 99.94
Neigh   | 0          | 0          | 0          |   0.0 |  0.00
Comm    | 0.00095415 | 0.00095415 | 0.00095415 |   0.0 |  0.03
Output  | 0          | 0          | 0          |   0.0 |  0.00
Modify  | 0          | 0          | 0          |   0.0 |  0.00
Other   |            | 0.0009687  |            |       |  0.03

Nlocal:    24 ave 24 max 24 min
Histogram: 1 0 0 0 0 0 0 0 0 0
Nghost:    1896 ave 1896 max 1896 min
Histogram: 1 0 0 0 0 0 0 0 0 0
Neighs:    0 ave 0 max 0 min
Histogram: 1 0 0 0 0 0 0 0 0 0

Total # of neighbors = 0
Ave neighs/atom = 0
Neighbor list builds = 0
Dangerous builds not checked
variable        N equal count(all)
variable        V equal vol
variable        E equal "c_mype"
variable        tmplx equal lx
variable        tmply equal ly
variable        Pxx equal pxx
variable        Pyy equal pyy
variable        Pzz equal pzz
variable        Pxy equal pxy
variable        Pxz equal pxz
variable        Pyz equal pyz
variable        Epa equal ${E}/${N}
variable        Epa equal -83.7717241371022/${N}
variable        Epa equal -83.7717241371022/24
variable        Vpa equal ${V}/${N}
variable        Vpa equal 612.164585847325/${N}
variable        Vpa equal 612.164585847325/24
variable        AA equal (${tmplx}*${tmply})
variable        AA equal (6.7996523882*${tmply})
variable        AA equal (6.7996523882*4.2061942105)
print "All done"
All done
print "Total number of atoms = ${N}"
Total number of atoms = 24
print "Final energy per atoms = ${Epa}"
Final energy per atoms = -3.49048850571259
print "Final volume per atoms = ${Vpa}"
Final volume per atoms = 25.5068577436385
print "Final Base area = ${AA}"
Final Base area = 28.6006585086593
print "Final Stress (xx yy zz xy xz yz) = ${Pxx} ${Pyy} ${Pzz} ${Pxy} ${Pxz} ${Pyz}"
Final Stress (xx yy zz xy xz yz) = -10528.7792764165 -9568.55223145376 -0.0259414042690268 -348.375578190101 0.135433097291677 -0.0647896664010009
Total wall time: 0:00:04
