 vasp.5.4.4.18Apr17-6-g9f103f2a35 (build Jul 12 2018 13:43:46) complex           
 executed on             LinuxGNU date 2019.06.24  12:57:22
 running on    1 total cores
 distrk:  each k-point on    1 cores,    1 groups
 distr:  one band on NCORES_PER_BAND=   1 cores,    1 groups


--------------------------------------------------------------------------------------------------------


 INCAR:
 POTCAR:    PAW_PBE H 15Jun2001                   
 POTCAR:    PAW_PBE C 08Apr2002                   
 POTCAR:    PAW_PBE H 15Jun2001                   
   VRHFIN =H: ultrasoft test                                                    
   LEXCH  = PE                                                                  
   EATOM  =    12.4884 eV,    0.9179 Ry                                         
                                                                                
   TITEL  = PAW_PBE H 15Jun2001                                                 
   LULTRA =        F    use ultrasoft PP ?                                      
   IUNSCR =        0    unscreen: 0-lin 1-nonlin 2-no                           
   RPACOR =    0.000    partial core radius                                     
   POMASS =    1.000; ZVAL   =    1.000    mass and valenz                      
   RCORE  =    1.100    outmost cutoff radius                                   
   RWIGS  =    0.700; RWIGS  =    0.370    wigner-seitz radius (au A)           
   ENMAX  =  250.000; ENMIN  =  200.000 eV                                      
   RCLOC  =    0.701    cutoff for local pot                                    
   LCOR   =        T    correct aug charges                                     
   LPAW   =        T    paw PP                                                  
   EAUG   =  400.000                                                            
   RMAX   =    1.123    core radius for proj-oper                               
   RAUG   =    1.200    factor for augmentation sphere                          
   RDEP   =    1.112    radius for radial grids                                 
   RDEPT  =    0.926    core radius for aug-charge                              
                                                                                
   Atomic configuration                                                         
    2 entries                                                                   
     n  l   j            E        occ.                                          
     1  0  0.50        -6.4927   1.0000                                         
     2  1  0.50        -3.4015   0.0000                                         
   Description                                                                  
     l       E           TYP  RCUT    TYP  RCUT                                 
     0     -6.4927494     23  1.100                                             
     0      6.8029130     23  1.100                                             
     1     -4.0817478     23  1.100                                             
  local pseudopotential read in
  atomic valenz-charges read in
  non local Contribution for L=           0  read in
    real space projection operators read in
  non local Contribution for L=           0  read in
    real space projection operators read in
  non local Contribution for L=           1  read in
    real space projection operators read in
    PAW grid and wavefunctions read in

   number of l-projection  operators is LMAX  =           3
   number of lm-projection operators is LMMAX =           5

 POTCAR:    PAW_PBE C 08Apr2002                   
   VRHFIN =C: s2p2                                                              
   LEXCH  = PE                                                                  
   EATOM  =   147.1560 eV,   10.8157 Ry                                         
                                                                                
   TITEL  = PAW_PBE C 08Apr2002                                                 
   LULTRA =        F    use ultrasoft PP ?                                      
   IUNSCR =        1    unscreen: 0-lin 1-nonlin 2-no                           
   RPACOR =    1.200    partial core radius                                     
   POMASS =   12.011; ZVAL   =    4.000    mass and valenz                      
   RCORE  =    1.500    outmost cutoff radius                                   
   RWIGS  =    1.630; RWIGS  =    0.863    wigner-seitz radius (au A)           
   ENMAX  =  400.000; ENMIN  =  300.000 eV                                      
   ICORE  =        2    local potential                                         
   LCOR   =        T    correct aug charges                                     
   LPAW   =        T    paw PP                                                  
   EAUG   =  644.873                                                            
   DEXC   =    0.000                                                            
   RMAX   =    1.529    core radius for proj-oper                               
   RAUG   =    1.300    factor for augmentation sphere                          
   RDEP   =    1.501    radius for radial grids                                 
   RDEPT  =    1.300    core radius for aug-charge                              
                                                                                
   Atomic configuration                                                         
    4 entries                                                                   
     n  l   j            E        occ.                                          
     1  0  0.50      -273.3789   2.0000                                         
     2  0  0.50       -13.7508   2.0000                                         
     2  1  0.50        -5.2854   2.0000                                         
     3  2  1.50        -5.4423   0.0000                                         
   Description                                                                  
     l       E           TYP  RCUT    TYP  RCUT                                 
     0    -13.7508458     23  1.200                                             
     0     -8.2022199     23  1.200                                             
     1     -5.2854383     23  1.500                                             
     1     34.0145650     23  1.500                                             
     2     -5.4423304      7  1.500                                             
  local pseudopotential read in
  partial core-charges read in
  partial kinetic energy density read in
  atomic valenz-charges read in
  non local Contribution for L=           0  read in
    real space projection operators read in
  non local Contribution for L=           0  read in
    real space projection operators read in
  non local Contribution for L=           1  read in
    real space projection operators read in
  non local Contribution for L=           1  read in
    real space projection operators read in
    PAW grid and wavefunctions read in

   number of l-projection  operators is LMAX  =           4
   number of lm-projection operators is LMMAX =           8


 ----------------------------------------------------------------------------- 
|                                                                             |
|  ADVICE TO THIS USER RUNNING 'VASP/VAMP'   (HEAR YOUR MASTER'S VOICE ...):  |
|                                                                             |
|      You have a (more or less) 'small supercell' and for smaller cells      |
|      it is recommended  to use the reciprocal-space projection scheme!      |
|      The real space optimization is not  efficient for small cells and it   |
|      is also less accurate ...                                              |
|      Therefore set LREAL=.FALSE. in the  INCAR file                         |
|                                                                             |
 ----------------------------------------------------------------------------- 

 Optimization of the real space projectors (new method)

 maximal supplied QI-value         = 34.20
 optimisation between [QCUT,QGAM] = [  9.92, 20.18] = [ 27.55,114.04] Ry 
 Optimized for a Real-space Cutoff    1.34 Angstroem

   l    n(q)    QCUT    max X(q) W(low)/X(q) W(high)/X(q)  e(spline) 
   0      8     9.919    19.460    0.16E-03    0.20E-03    0.36E-06
   0      8     9.919    12.209    0.16E-03    0.20E-03    0.35E-06
   1      8     9.919     4.655    0.19E-03    0.46E-03    0.40E-06
 Optimization of the real space projectors (new method)

 maximal supplied QI-value         = 25.13
 optimisation between [QCUT,QGAM] = [ 10.05, 20.36] = [ 28.30,116.06] Ry 
 Optimized for a Real-space Cutoff    1.51 Angstroem

   l    n(q)    QCUT    max X(q) W(low)/X(q) W(high)/X(q)  e(spline) 
   0      9    10.053   115.676    0.19E-03    0.21E-03    0.38E-06
   0      9    10.053    87.132    0.19E-03    0.21E-03    0.38E-06
   1      9    10.053     4.429    0.87E-04    0.11E-03    0.39E-06
   1      9    10.053     2.733    0.59E-04    0.62E-04    0.43E-06
  PAW_PBE H 15Jun2001                   :
 energy of atom  1       EATOM=  -12.4884
 kinetic energy error for atom=    0.0098 (will be added to EATOM!!)
  PAW_PBE C 08Apr2002                   :
 energy of atom  2       EATOM= -147.1560
 kinetic energy error for atom=    0.0288 (will be added to EATOM!!)


 POSCAR: POSCAR file written by OVITO            
  positions in cartesian coordinates
  No initial velocities read in
 exchange correlation table for  LEXCH =        8
   RHO(1)=    0.500       N(1)  =     2000
   RHO(2)=  100.500       N(2)  =     4000



--------------------------------------------------------------------------------------------------------


 ion  position               nearest neighbor table
   1  0.443  0.531  0.507-   5 1.08
   2  0.601  0.513  0.420-   5 1.11
   3  0.453  0.442  0.347-   5 1.10
   4  0.522  0.376  0.509-   5 1.15
   5  0.503  0.468  0.445-   1 1.08   3 1.10   2 1.11   4 1.15


IMPORTANT INFORMATION: All symmetrisations will be switched off!
NOSYMM: (Re-)initialisation of all symmetry stuff for point group C_1.




Automatic generation of k-mesh.
 generate k-points for:    1    1    1
Space group operators:
 irot       det(A)        alpha          n_x          n_y          n_z        tau_x        tau_y        tau_z
    1     1.000000     0.000000     1.000000     0.000000     0.000000     0.000000     0.000000     0.000000
 
 Subroutine IBZKPT returns following result:
 ===========================================
 
 Found      1 irreducible k-points:
 
 Following reciprocal coordinates:
            Coordinates               Weight
  0.000000  0.000000  0.000000      1.000000
 
 Following cartesian coordinates:
            Coordinates               Weight
  0.000000  0.000000  0.000000      1.000000
 


--------------------------------------------------------------------------------------------------------




 Dimension of arrays:
   k-points           NKPTS =      1   k-points in BZ     NKDIM =      1   number of bands    NBANDS=      8
   number of dos      NEDOS =    301   number of ions     NIONS =      5
   non local maximal  LDIM  =      4   non local SUM 2l+1 LMDIM =      8
   total plane-waves  NPLWV = 313600
   max r-space proj   IRMAX =   4597   max aug-charges    IRDMAX=   3930
   dimension x,y,z NGX =    70 NGY =   70 NGZ =   64
   dimension x,y,z NGXF=   140 NGYF=  140 NGZF=  128
   support grid    NGXF=   140 NGYF=  140 NGZF=  128
   ions per type =               4   1
   NGX,Y,Z   is equivalent  to a cutoff of  11.56, 11.50, 10.92 a.u.
   NGXF,Y,Z  is equivalent  to a cutoff of  23.12, 23.00, 21.84 a.u.

 SYSTEM =  unknown system                          
 POSCAR =  POSCAR file written by OVITO            

 Startparameter for this run:
   NWRITE =      2    write-flag & timer
   PREC   = a         normal or accurate (medium, high low for compatibility)
   ISTART =      0    job   : 0-new  1-cont  2-samecut
   ICHARG =      2    charge: 1-file 2-atom 10-const
   ISPIN  =      1    spin polarized calculation?
   LNONCOLLINEAR =      F non collinear calculations
   LSORBIT =      F    spin-orbit coupling
   INIWAV =      1    electr: 0-lowe 1-rand  2-diag
   LASPH  =      F    aspherical Exc in radial PAW
   METAGGA=      F    non-selfconsistent MetaGGA calc.

 Electronic Relaxation 1
   ENCUT  =  400.0 eV  29.40 Ry    5.42 a.u.  16.42 16.51 15.89*2*pi/ulx,y,z
   ENINI  =  400.0     initial cutoff
   ENAUG  =  644.9 eV  augmentation charge cutoff
   NELM   =    120;   NELMIN=  4; NELMDL= -5     # of ELM steps 
   EDIFF  = 0.1E-05   stopping-criterion for ELM
   LREAL  =      T    real-space projection
   NLSPLINE    = F    spline interpolate recip. space projectors
   LCOMPAT=      F    compatible to vasp.4.4
   GGA_COMPAT  = T    GGA compatible to vasp.4.4-vasp.4.6
   LMAXPAW     = -100 max onsite density
   LMAXMIX     =    2 max onsite mixed and CHGCAR
   VOSKOWN=      0    Vosko Wilk Nusair interpolation
   ROPT   =   -0.00025  -0.00025
 Ionic relaxation
   EDIFFG = 0.1E-04   stopping-criterion for IOM
   NSW    =      0    number of steps for IOM
   NBLOCK =      1;   KBLOCK =      1    inner block; outer block 
   IBRION =     -1    ionic relax: 0-MD 1-quasi-New 2-CG
   NFREE  =      0    steps in history (QN), initial steepest desc. (CG)
   ISIF   =      2    stress and relaxation
   IWAVPR =     10    prediction:  0-non 1-charg 2-wave 3-comb
   ISYM   =      0    0-nonsym 1-usesym 2-fastsym
   LCORR  =      T    Harris-Foulkes like correction to forces

   POTIM  = 0.5000    time-step for ionic-motion
   TEIN   =    0.0    initial temperature
   TEBEG  =    0.0;   TEEND  =   0.0 temperature during run
   SMASS  =  -3.00    Nose mass-parameter (am)
   estimated Nose-frequenzy (Omega)   =  0.10E-29 period in steps =****** mass=  -0.232E-26a.u.
   SCALEE = 1.0000    scale energy and forces
   NPACO  =    256;   APACO  = 16.0  distance and # of slots for P.C.
   PSTRESS=    0.0 pullay stress

  Mass of Ions in am
   POMASS =   1.00 12.01
  Ionic Valenz
   ZVAL   =   1.00  4.00
  Atomic Wigner-Seitz radii
   RWIGS  =  -1.00 -1.00
  virtual crystal weights 
   VCA    =   1.00  1.00
   NELECT =       8.0000    total number of electrons
   NUPDOWN=      -1.0000    fix difference up-down

 DOS related values:
   EMIN   =  10.00;   EMAX   =-10.00  energy-range for DOS
   EFERMI =   0.00
   ISMEAR =     0;   SIGMA  =   0.05  broadening in eV -4-tet -1-fermi 0-gaus

 Electronic relaxation 2 (details)
   IALGO  =     38    algorithm
   LDIAG  =      T    sub-space diagonalisation (order eigenvalues)
   LSUBROT=      F    optimize rotation matrix (better conditioning)
   TURBO    =      0    0=normal 1=particle mesh
   IRESTART =      0    0=no restart 2=restart with 2 vectors
   NREBOOT  =      0    no. of reboots
   NMIN     =      0    reboot dimension
   EREF     =   0.00    reference energy to select bands
   IMIX   =      4    mixing-type and parameters
     AMIX     =   0.40;   BMIX     =  1.00
     AMIX_MAG =   1.60;   BMIX_MAG =  1.00
     AMIN     =   0.10
     WC   =   100.;   INIMIX=   1;  MIXPRE=   1;  MAXMIX= -45

 Intra band minimization:
   WEIMIN = 0.0000     energy-eigenvalue tresh-hold
   EBREAK =  0.31E-07  absolut break condition
   DEPER  =   0.30     relativ break condition  

   TIME   =   0.40     timestep for ELM

  volume/ion in A,a.u.               =     198.36      1338.57
  Fermi-wavevector in a.u.,A,eV,Ry     =   0.328322  0.620439  1.466646  0.107795
  Thomas-Fermi vector in A             =   1.221811

 Write flags
   LWAVE        =      F    write WAVECAR
   LDOWNSAMPLE  =      F    k-point downsampling of WAVECAR
   LCHARG       =      F    write CHGCAR
   LVTOT        =      F    write LOCPOT, total local potential
   LVHAR        =      F    write LOCPOT, Hartree potential only
   LELF         =      F    write electronic localiz. function (ELF)
   LORBIT       =      0    0 simple, 1 ext, 2 COOP (PROOUT), +10 PAW based schemes


 Dipole corrections
   LMONO  =      F    monopole corrections only (constant potential shift)
   LDIPOL =      F    correct potential (dipole corrections)
   IDIPOL =      0    1-x, 2-y, 3-z, 4-all directions 
   EPSILON=  1.0000000 bulk dielectric constant

 Exchange correlation treatment:
   GGA     =    --    GGA type
   LEXCH   =     8    internal setting for exchange type
   VOSKOWN=      0    Vosko Wilk Nusair interpolation
   LHFCALC =     F    Hartree Fock is set to
   LHFONE  =     F    Hartree Fock one center treatment
   AEXX    =    0.0000 exact exchange contribution

 Linear response parameters
   LEPSILON=     F    determine dielectric tensor
   LRPA    =     F    only Hartree local field effects (RPA)
   LNABLA  =     F    use nabla operator in PAW spheres
   LVEL    =     F    velocity operator in full k-point grid
   LINTERFAST=   F  fast interpolation
   KINTER  =     0    interpolate to denser k-point grid
   CSHIFT  =0.1000    complex shift for real part using Kramers Kronig
   OMEGAMAX=  -1.0    maximum frequency
   DEG_THRESHOLD= 0.2000000E-02 threshold for treating states as degnerate
   RTIME   =   -0.100 relaxation time in fs
  (WPLASMAI=    0.000 imaginary part of plasma frequency in eV, 0.658/RTIME)
   DFIELD  = 0.0000000 0.0000000 0.0000000 field for delta impulse in time

 Orbital magnetization related:
   ORBITALMAG=     F  switch on orbital magnetization
   LCHIMAG   =     F  perturbation theory with respect to B field
   DQ        =  0.001000  dq finite difference perturbation B field
   LLRAUG    =     F  two centre corrections for induced B field



--------------------------------------------------------------------------------------------------------


 Static calculation
 charge density and potential will be updated during run
 non-spin polarized calculation
 Variant of blocked Davidson
 Davidson routine will perform the subspace rotation
 perform sub-space diagonalisation
    after iterative eigenvector-optimisation
 modified Broyden-mixing scheme, WC =      100.0
 initial mixing is a Kerker type mixing with AMIX =  0.4000 and BMIX =      1.0000
 Hartree-type preconditioning will be used
 using additional bands            4
 real space projection scheme for non local part
 use partial core corrections
 calculate Harris-corrections to forces   (improved forces if not selfconsistent)
 use gradient corrections 
 use of overlap-Matrix (Vanderbilt PP)
 Gauss-broadening in eV      SIGMA  =   0.05


--------------------------------------------------------------------------------------------------------


  energy-cutoff  :      400.00
  volume of cell :      991.78
      direct lattice vectors                 reciprocal lattice vectors
    10.066470100  0.000000000  0.000000000     0.099339688  0.002764962  0.002631667
    -0.281599800 10.117331500  0.000000000    -0.000000000  0.098840292  0.001081372
    -0.255010300 -0.106539800  9.738018100     0.000000000 -0.000000000  0.102690300

  length of vectors
    10.066470100 10.121249682  9.741939104     0.099412999  0.098846207  0.102690300



 k-points in units of 2pi/SCALE and weight: read from INCAR                         
   0.00000000  0.00000000  0.00000000       1.000

 k-points in reciprocal lattice and weights: read from INCAR                         
   0.00000000  0.00000000  0.00000000       1.000

 position of ions in fractional coordinates (direct lattice) 
   0.44274215  0.53082388  0.50673599
   0.60133962  0.51279206  0.41950261
   0.45254099  0.44191067  0.34685028
   0.52179438  0.37554454  0.50933816
   0.50286702  0.46798486  0.44513312

 position of ions in cartesian coordinates  (Angst):
   4.17814780  5.31653360  4.93460420
   5.80198770  5.14339350  4.08512400
   4.34259800  4.43400340  3.37763430
   5.01698780  3.74524380  4.95994420
   4.81679780  4.68733360  4.33471440



--------------------------------------------------------------------------------------------------------


 k-point  1 :   0.0000 0.0000 0.0000  plane waves:   18031

 maximum and minimum number of plane-waves per node :     18031    18031

 maximum number of plane-waves:     18031
 maximum index in each direction: 
   IXMAX=   16   IYMAX=   16   IZMAX=   15
   IXMIN=  -16   IYMIN=  -16   IZMIN=  -15


 serial   3D FFT for wavefunctions
 parallel 3D FFT for charge:
    minimum data exchange during FFTs selected (reduces bandwidth)


 total amount of memory used by VASP MPI-rank0   274959. kBytes
=======================================================================

   base      :      30000. kBytes
   nonlr-proj:       1242. kBytes
   fftplans  :      86708. kBytes
   grid      :     154683. kBytes
   one-center:         15. kBytes
   wavefun   :       2311. kBytes

     INWAV:  cpu time    0.0000: real time    0.0000
 Broyden mixing: mesh for mixing (old mesh)
   NGX = 33   NGY = 33   NGZ = 31
  (NGX  =140   NGY  =140   NGZ  =128)
  gives a total of  33759 points

 initial charge density was supplied:
 charge density of overlapping atoms calculated
 number of electron       8.0000000 magnetization 
 keeping initial charge density in first step


--------------------------------------------------------------------------------------------------------


 Maximum index for non-local projection operator         4412
 Maximum index for augmentation-charges         3618 (set IRDMAX)


--------------------------------------------------------------------------------------------------------


 First call to EWALD:  gamma=   0.178
 Maximum number of real-space cells 3x 3x 3
 Maximum number of reciprocal cells 3x 3x 3

    FEWALD:  cpu time    0.0007: real time    0.0007


--------------------------------------- Iteration      1(   1)  ---------------------------------------


    POTLOK:  cpu time    1.6817: real time    1.6858
    SETDIJ:  cpu time    0.0069: real time    0.0069
     EDDAV:  cpu time    0.4235: real time    0.4245
       DOS:  cpu time    0.0001: real time    0.0001
    --------------------------------------------
      LOOP:  cpu time    2.1123: real time    2.1174

 eigenvalue-minimisations  :    16
 total energy-change (2. order) : 0.5887594E+02  (-0.1599143E+03)
 number of electron       8.0000000 magnetization 
 augmentation part        8.0000000 magnetization 

 Free energy of the ion-electron system (eV)
  ---------------------------------------------------
  alpha Z        PSCENC =         0.24425949
  Ewald energy   TEWEN  =       125.58566038
  -Hartree energ DENC   =      -242.19444471
  -exchange      EXHF   =         0.00000000
  -V(xc)+E(xc)   XCENC  =        21.94094869
  PAW double counting   =       117.05815612     -117.66307307
  entropy T*S    EENTRO =        -0.00000000
  eigenvalues    EBANDS =       -43.13732074
  atomic energy  EATOM  =       197.04175453
  Solvation  Ediel_sol  =         0.00000000
  ---------------------------------------------------
  free energy    TOTEN  =        58.87594069 eV

  energy without entropy =       58.87594069  energy(sigma->0) =       58.87594069


--------------------------------------------------------------------------------------------------------




--------------------------------------- Iteration      1(   2)  ---------------------------------------


     EDDAV:  cpu time    0.7728: real time    0.7749
       DOS:  cpu time    0.0001: real time    0.0001
    --------------------------------------------
      LOOP:  cpu time    0.7730: real time    0.7750

 eigenvalue-minimisations  :    32
 total energy-change (2. order) :-0.7355289E+02  (-0.7355289E+02)
 number of electron       8.0000000 magnetization 
 augmentation part        8.0000000 magnetization 

 Free energy of the ion-electron system (eV)
  ---------------------------------------------------
  alpha Z        PSCENC =         0.24425949
  Ewald energy   TEWEN  =       125.58566038
  -Hartree energ DENC   =      -242.19444471
  -exchange      EXHF   =         0.00000000
  -V(xc)+E(xc)   XCENC  =        21.94094869
  PAW double counting   =       117.05815612     -117.66307307
  entropy T*S    EENTRO =        -0.00000000
  eigenvalues    EBANDS =      -116.69021100
  atomic energy  EATOM  =       197.04175453
  Solvation  Ediel_sol  =         0.00000000
  ---------------------------------------------------
  free energy    TOTEN  =       -14.67694956 eV

  energy without entropy =      -14.67694956  energy(sigma->0) =      -14.67694956


--------------------------------------------------------------------------------------------------------




--------------------------------------- Iteration      1(   3)  ---------------------------------------


     EDDAV:  cpu time    0.4375: real time    0.4385
       DOS:  cpu time    0.0001: real time    0.0001
    --------------------------------------------
      LOOP:  cpu time    0.4375: real time    0.4386

 eigenvalue-minimisations  :    16
 total energy-change (2. order) :-0.1200410E+02  (-0.1200410E+02)
 number of electron       8.0000000 magnetization 
 augmentation part        8.0000000 magnetization 

 Free energy of the ion-electron system (eV)
  ---------------------------------------------------
  alpha Z        PSCENC =         0.24425949
  Ewald energy   TEWEN  =       125.58566038
  -Hartree energ DENC   =      -242.19444471
  -exchange      EXHF   =         0.00000000
  -V(xc)+E(xc)   XCENC  =        21.94094869
  PAW double counting   =       117.05815612     -117.66307307
  entropy T*S    EENTRO =        -0.00000000
  eigenvalues    EBANDS =      -128.69431314
  atomic energy  EATOM  =       197.04175453
  Solvation  Ediel_sol  =         0.00000000
  ---------------------------------------------------
  free energy    TOTEN  =       -26.68105170 eV

  energy without entropy =      -26.68105170  energy(sigma->0) =      -26.68105170


--------------------------------------------------------------------------------------------------------




--------------------------------------- Iteration      1(   4)  ---------------------------------------


     EDDAV:  cpu time    0.7453: real time    0.7471
       DOS:  cpu time    0.0001: real time    0.0001
    --------------------------------------------
      LOOP:  cpu time    0.7454: real time    0.7472

 eigenvalue-minimisations  :    32
 total energy-change (2. order) :-0.6422794E+00  (-0.6422794E+00)
 number of electron       8.0000000 magnetization 
 augmentation part        8.0000000 magnetization 

 Free energy of the ion-electron system (eV)
  ---------------------------------------------------
  alpha Z        PSCENC =         0.24425949
  Ewald energy   TEWEN  =       125.58566038
  -Hartree energ DENC   =      -242.19444471
  -exchange      EXHF   =         0.00000000
  -V(xc)+E(xc)   XCENC  =        21.94094869
  PAW double counting   =       117.05815612     -117.66307307
  entropy T*S    EENTRO =        -0.00000000
  eigenvalues    EBANDS =      -129.33659252
  atomic energy  EATOM  =       197.04175453
  Solvation  Ediel_sol  =         0.00000000
  ---------------------------------------------------
  free energy    TOTEN  =       -27.32333108 eV

  energy without entropy =      -27.32333108  energy(sigma->0) =      -27.32333108


--------------------------------------------------------------------------------------------------------




--------------------------------------- Iteration      1(   5)  ---------------------------------------


     EDDAV:  cpu time    0.7903: real time    0.7922
       DOS:  cpu time    0.0001: real time    0.0001
    CHARGE:  cpu time    0.0997: real time    0.1000
    MIXING:  cpu time    0.0369: real time    0.0370
    --------------------------------------------
      LOOP:  cpu time    0.9271: real time    0.9293

 eigenvalue-minimisations  :    32
 total energy-change (2. order) :-0.2256512E-03  (-0.2256518E-03)
 number of electron       8.0000004 magnetization 
 augmentation part        0.2209713 magnetization 

 Broyden mixing:
  rms(total) = 0.85085E+00    rms(broyden)= 0.85065E+00
  rms(prec ) = 0.12093E+01
  weight for this iteration     100.00

 Free energy of the ion-electron system (eV)
  ---------------------------------------------------
  alpha Z        PSCENC =         0.24425949
  Ewald energy   TEWEN  =       125.58566038
  -Hartree energ DENC   =      -242.19444471
  -exchange      EXHF   =         0.00000000
  -V(xc)+E(xc)   XCENC  =        21.94094869
  PAW double counting   =       117.05815612     -117.66307307
  entropy T*S    EENTRO =        -0.00000000
  eigenvalues    EBANDS =      -129.33681817
  atomic energy  EATOM  =       197.04175453
  Solvation  Ediel_sol  =         0.00000000
  ---------------------------------------------------
  free energy    TOTEN  =       -27.32355673 eV

  energy without entropy =      -27.32355673  energy(sigma->0) =      -27.32355673


--------------------------------------------------------------------------------------------------------




--------------------------------------- Iteration      1(   6)  ---------------------------------------


    POTLOK:  cpu time    1.6832: real time    1.6872
    SETDIJ:  cpu time    0.0063: real time    0.0063
     EDDAV:  cpu time    0.6464: real time    0.6479
       DOS:  cpu time    0.0001: real time    0.0001
    CHARGE:  cpu time    0.1006: real time    0.1008
    MIXING:  cpu time    0.0402: real time    0.0403
    --------------------------------------------
      LOOP:  cpu time    2.4768: real time    2.4826

 eigenvalue-minimisations  :    24
 total energy-change (2. order) : 0.2748555E+01  (-0.8589382E+00)
 number of electron       8.0000004 magnetization 
 augmentation part        0.1935223 magnetization 

 Broyden mixing:
  rms(total) = 0.43594E+00    rms(broyden)= 0.43583E+00
  rms(prec ) = 0.54757E+00
  weight for this iteration     100.00

 eigenvalues of (default mixing * dielectric matrix)
  average eigenvalue GAMMA=   1.1918
  1.1918

 Free energy of the ion-electron system (eV)
  ---------------------------------------------------
  alpha Z        PSCENC =         0.24425949
  Ewald energy   TEWEN  =       125.58566038
  -Hartree energ DENC   =      -261.44832639
  -exchange      EXHF   =         0.00000000
  -V(xc)+E(xc)   XCENC  =        23.10942765
  PAW double counting   =       234.61539437     -235.38887237
  entropy T*S    EENTRO =        -0.00000000
  eigenvalues    EBANDS =      -108.33429910
  atomic energy  EATOM  =       197.04175453
  Solvation  Ediel_sol  =         0.00000000
  ---------------------------------------------------
  free energy    TOTEN  =       -24.57500144 eV

  energy without entropy =      -24.57500144  energy(sigma->0) =      -24.57500144


--------------------------------------------------------------------------------------------------------




--------------------------------------- Iteration      1(   7)  ---------------------------------------


    POTLOK:  cpu time    1.7019: real time    1.7059
    SETDIJ:  cpu time    0.0066: real time    0.0066
     EDDAV:  cpu time    0.6123: real time    0.6138
       DOS:  cpu time    0.0001: real time    0.0001
    CHARGE:  cpu time    0.0883: real time    0.0886
    MIXING:  cpu time    0.0367: real time    0.0368
    --------------------------------------------
      LOOP:  cpu time    2.4459: real time    2.4517

 eigenvalue-minimisations  :    24
 total energy-change (2. order) : 0.4549769E+00  (-0.6623326E-01)
 number of electron       8.0000004 magnetization 
 augmentation part        0.1854992 magnetization 

 Broyden mixing:
  rms(total) = 0.22226E+00    rms(broyden)= 0.22222E+00
  rms(prec ) = 0.27508E+00
  weight for this iteration     100.00

 eigenvalues of (default mixing * dielectric matrix)
  average eigenvalue GAMMA=   1.6897
  1.2402  2.1392

 Free energy of the ion-electron system (eV)
  ---------------------------------------------------
  alpha Z        PSCENC =         0.24425949
  Ewald energy   TEWEN  =       125.58566038
  -Hartree energ DENC   =      -271.08584909
  -exchange      EXHF   =         0.00000000
  -V(xc)+E(xc)   XCENC  =        23.84011710
  PAW double counting   =       355.29566899     -356.09415925
  entropy T*S    EENTRO =        -0.00000000
  eigenvalues    EBANDS =       -98.94747665
  atomic energy  EATOM  =       197.04175453
  Solvation  Ediel_sol  =         0.00000000
  ---------------------------------------------------
  free energy    TOTEN  =       -24.12002450 eV

  energy without entropy =      -24.12002450  energy(sigma->0) =      -24.12002450


--------------------------------------------------------------------------------------------------------




--------------------------------------- Iteration      1(   8)  ---------------------------------------


    POTLOK:  cpu time    1.8097: real time    1.8140
    SETDIJ:  cpu time    0.0073: real time    0.0073
     EDDAV:  cpu time    0.8783: real time    0.8804
       DOS:  cpu time    0.0001: real time    0.0001
    CHARGE:  cpu time    0.1042: real time    0.1044
    MIXING:  cpu time    0.0391: real time    0.0392
    --------------------------------------------
      LOOP:  cpu time    2.8386: real time    2.8454

 eigenvalue-minimisations  :    32
 total energy-change (2. order) : 0.1611210E+00  (-0.1659991E-01)
 number of electron       8.0000004 magnetization 
 augmentation part        0.1829603 magnetization 

 Broyden mixing:
  rms(total) = 0.26493E-01    rms(broyden)= 0.26468E-01
  rms(prec ) = 0.55011E-01
  weight for this iteration     100.00

 eigenvalues of (default mixing * dielectric matrix)
  average eigenvalue GAMMA=   1.5680
  2.1752  1.1198  1.4090

 Free energy of the ion-electron system (eV)
  ---------------------------------------------------
  alpha Z        PSCENC =         0.24425949
  Ewald energy   TEWEN  =       125.58566038
  -Hartree energ DENC   =      -277.99332974
  -exchange      EXHF   =         0.00000000
  -V(xc)+E(xc)   XCENC  =        24.45747024
  PAW double counting   =       462.27117312     -463.05552068
  entropy T*S    EENTRO =        -0.00000000
  eigenvalues    EBANDS =       -92.51037083
  atomic energy  EATOM  =       197.04175453
  Solvation  Ediel_sol  =         0.00000000
  ---------------------------------------------------
  free energy    TOTEN  =       -23.95890350 eV

  energy without entropy =      -23.95890350  energy(sigma->0) =      -23.95890350


--------------------------------------------------------------------------------------------------------




--------------------------------------- Iteration      1(   9)  ---------------------------------------


    POTLOK:  cpu time    1.8238: real time    1.8281
    SETDIJ:  cpu time    0.0063: real time    0.0063
     EDDAV:  cpu time    0.4352: real time    0.4362
       DOS:  cpu time    0.0001: real time    0.0001
    CHARGE:  cpu time    0.0901: real time    0.0903
    MIXING:  cpu time    0.0368: real time    0.0369
    --------------------------------------------
      LOOP:  cpu time    2.3923: real time    2.3980

 eigenvalue-minimisations  :    16
 total energy-change (2. order) : 0.7235149E-02  (-0.3300671E-03)
 number of electron       8.0000004 magnetization 
 augmentation part        0.1824804 magnetization 

 Broyden mixing:
  rms(total) = 0.15706E-01    rms(broyden)= 0.15702E-01
  rms(prec ) = 0.35757E-01
  weight for this iteration     100.00

 eigenvalues of (default mixing * dielectric matrix)
  average eigenvalue GAMMA=   1.8954
  2.9380  2.4508  0.9982  1.1944

 Free energy of the ion-electron system (eV)
  ---------------------------------------------------
  alpha Z        PSCENC =         0.24425949
  Ewald energy   TEWEN  =       125.58566038
  -Hartree energ DENC   =      -279.37777242
  -exchange      EXHF   =         0.00000000
  -V(xc)+E(xc)   XCENC  =        24.53481098
  PAW double counting   =       460.33017546     -461.11168645
  entropy T*S    EENTRO =        -0.00000000
  eigenvalues    EBANDS =       -91.19887032
  atomic energy  EATOM  =       197.04175453
  Solvation  Ediel_sol  =         0.00000000
  ---------------------------------------------------
  free energy    TOTEN  =       -23.95166835 eV

  energy without entropy =      -23.95166835  energy(sigma->0) =      -23.95166835


--------------------------------------------------------------------------------------------------------




--------------------------------------- Iteration      1(  10)  ---------------------------------------


    POTLOK:  cpu time    1.6675: real time    1.6715
    SETDIJ:  cpu time    0.0069: real time    0.0069
     EDDAV:  cpu time    0.6279: real time    0.6294
       DOS:  cpu time    0.0001: real time    0.0001
    CHARGE:  cpu time    0.0965: real time    0.0967
    MIXING:  cpu time    0.0372: real time    0.0372
    --------------------------------------------
      LOOP:  cpu time    2.4361: real time    2.4419

 eigenvalue-minimisations  :    24
 total energy-change (2. order) : 0.8424281E-02  (-0.5426676E-03)
 number of electron       8.0000004 magnetization 
 augmentation part        0.1822117 magnetization 

 Broyden mixing:
  rms(total) = 0.64848E-02    rms(broyden)= 0.64834E-02
  rms(prec ) = 0.15937E-01
  weight for this iteration     100.00

 eigenvalues of (default mixing * dielectric matrix)
  average eigenvalue GAMMA=   2.3125
  4.3623  1.1955  1.0128  2.4961  2.4961

 Free energy of the ion-electron system (eV)
  ---------------------------------------------------
  alpha Z        PSCENC =         0.24425949
  Ewald energy   TEWEN  =       125.58566038
  -Hartree energ DENC   =      -280.96731142
  -exchange      EXHF   =         0.00000000
  -V(xc)+E(xc)   XCENC  =        24.60488523
  PAW double counting   =       450.87074331     -451.64833428
  entropy T*S    EENTRO =        -0.00000000
  eigenvalues    EBANDS =       -89.67490130
  atomic energy  EATOM  =       197.04175453
  Solvation  Ediel_sol  =         0.00000000
  ---------------------------------------------------
  free energy    TOTEN  =       -23.94324407 eV

  energy without entropy =      -23.94324407  energy(sigma->0) =      -23.94324407


--------------------------------------------------------------------------------------------------------




--------------------------------------- Iteration      1(  11)  ---------------------------------------


    POTLOK:  cpu time    1.4939: real time    1.4974
    SETDIJ:  cpu time    0.0062: real time    0.0063
     EDDAV:  cpu time    0.4317: real time    0.4328
       DOS:  cpu time    0.0001: real time    0.0001
    CHARGE:  cpu time    0.1015: real time    0.1018
    MIXING:  cpu time    0.0411: real time    0.0412
    --------------------------------------------
      LOOP:  cpu time    2.0746: real time    2.0795

 eigenvalue-minimisations  :    16
 total energy-change (2. order) :-0.8906266E-02  (-0.4066375E-03)
 number of electron       8.0000004 magnetization 
 augmentation part        0.1818172 magnetization 

 Broyden mixing:
  rms(total) = 0.58214E-02    rms(broyden)= 0.58207E-02
  rms(prec ) = 0.99067E-02
  weight for this iteration     100.00

 eigenvalues of (default mixing * dielectric matrix)
  average eigenvalue GAMMA=   2.1766
  4.7791  2.8767  2.3207  1.2114  0.9719  0.9001

 Free energy of the ion-electron system (eV)
  ---------------------------------------------------
  alpha Z        PSCENC =         0.24425949
  Ewald energy   TEWEN  =       125.58566038
  -Hartree energ DENC   =      -282.01170463
  -exchange      EXHF   =         0.00000000
  -V(xc)+E(xc)   XCENC  =        24.64448338
  PAW double counting   =       453.36969103     -454.14887723
  entropy T*S    EENTRO =        -0.00000000
  eigenvalues    EBANDS =       -88.67741729
  atomic energy  EATOM  =       197.04175453
  Solvation  Ediel_sol  =         0.00000000
  ---------------------------------------------------
  free energy    TOTEN  =       -23.95215034 eV

  energy without entropy =      -23.95215034  energy(sigma->0) =      -23.95215034


--------------------------------------------------------------------------------------------------------




--------------------------------------- Iteration      1(  12)  ---------------------------------------


    POTLOK:  cpu time    1.5818: real time    1.5855
    SETDIJ:  cpu time    0.0069: real time    0.0069
     EDDAV:  cpu time    0.8110: real time    0.8129
       DOS:  cpu time    0.0001: real time    0.0001
    CHARGE:  cpu time    0.0926: real time    0.0928
    MIXING:  cpu time    0.0414: real time    0.0415
    --------------------------------------------
      LOOP:  cpu time    2.5338: real time    2.5398

 eigenvalue-minimisations  :    32
 total energy-change (2. order) :-0.2754231E-02  (-0.9197584E-04)
 number of electron       8.0000004 magnetization 
 augmentation part        0.1820020 magnetization 

 Broyden mixing:
  rms(total) = 0.25625E-02    rms(broyden)= 0.25624E-02
  rms(prec ) = 0.48314E-02
  weight for this iteration     100.00

 eigenvalues of (default mixing * dielectric matrix)
  average eigenvalue GAMMA=   2.3731
  4.9036  3.4392  2.7880  2.2807  1.2093  0.9955  0.9955

 Free energy of the ion-electron system (eV)
  ---------------------------------------------------
  alpha Z        PSCENC =         0.24425949
  Ewald energy   TEWEN  =       125.58566038
  -Hartree energ DENC   =      -281.58301409
  -exchange      EXHF   =         0.00000000
  -V(xc)+E(xc)   XCENC  =        24.61014625
  PAW double counting   =       450.20845831     -450.98710296
  entropy T*S    EENTRO =        -0.00000000
  eigenvalues    EBANDS =       -89.07506648
  atomic energy  EATOM  =       197.04175453
  Solvation  Ediel_sol  =         0.00000000
  ---------------------------------------------------
  free energy    TOTEN  =       -23.95490457 eV

  energy without entropy =      -23.95490457  energy(sigma->0) =      -23.95490457


--------------------------------------------------------------------------------------------------------




--------------------------------------- Iteration      1(  13)  ---------------------------------------


    POTLOK:  cpu time    1.5046: real time    1.5082
    SETDIJ:  cpu time    0.0071: real time    0.0071
     EDDAV:  cpu time    0.4571: real time    0.4582
       DOS:  cpu time    0.0001: real time    0.0001
    CHARGE:  cpu time    0.0919: real time    0.0921
    MIXING:  cpu time    0.0425: real time    0.0426
    --------------------------------------------
      LOOP:  cpu time    2.1032: real time    2.1082

 eigenvalue-minimisations  :    16
 total energy-change (2. order) :-0.3901513E-02  (-0.1169427E-03)
 number of electron       8.0000004 magnetization 
 augmentation part        0.1820709 magnetization 

 Broyden mixing:
  rms(total) = 0.28241E-02    rms(broyden)= 0.28237E-02
  rms(prec ) = 0.39530E-02
  weight for this iteration     100.00

 eigenvalues of (default mixing * dielectric matrix)
  average eigenvalue GAMMA=   2.4304
  6.2189  3.9578  2.6450  2.3082  1.2530  0.9651  1.0475  1.0475

 Free energy of the ion-electron system (eV)
  ---------------------------------------------------
  alpha Z        PSCENC =         0.24425949
  Ewald energy   TEWEN  =       125.58566038
  -Hartree energ DENC   =      -281.54394625
  -exchange      EXHF   =         0.00000000
  -V(xc)+E(xc)   XCENC  =        24.60383774
  PAW double counting   =       451.81607988     -452.59327891
  entropy T*S    EENTRO =        -0.00000000
  eigenvalues    EBANDS =       -89.11317293
  atomic energy  EATOM  =       197.04175453
  Solvation  Ediel_sol  =         0.00000000
  ---------------------------------------------------
  free energy    TOTEN  =       -23.95880608 eV

  energy without entropy =      -23.95880608  energy(sigma->0) =      -23.95880608


--------------------------------------------------------------------------------------------------------




--------------------------------------- Iteration      1(  14)  ---------------------------------------


    POTLOK:  cpu time    1.5452: real time    1.5491
    SETDIJ:  cpu time    0.0062: real time    0.0063
     EDDAV:  cpu time    0.8608: real time    0.8628
       DOS:  cpu time    0.0001: real time    0.0001
    CHARGE:  cpu time    0.1003: real time    0.1005
    MIXING:  cpu time    0.0431: real time    0.0432
    --------------------------------------------
      LOOP:  cpu time    2.5556: real time    2.5619

 eigenvalue-minimisations  :    32
 total energy-change (2. order) :-0.1945405E-03  (-0.1668992E-04)
 number of electron       8.0000004 magnetization 
 augmentation part        0.1819631 magnetization 

 Broyden mixing:
  rms(total) = 0.68196E-03    rms(broyden)= 0.68135E-03
  rms(prec ) = 0.12430E-02
  weight for this iteration     100.00

 eigenvalues of (default mixing * dielectric matrix)
  average eigenvalue GAMMA=   2.6377
  7.2077  4.4801  3.1947  2.4431  2.0145  1.2953  0.9888  1.0578  1.0578

 Free energy of the ion-electron system (eV)
  ---------------------------------------------------
  alpha Z        PSCENC =         0.24425949
  Ewald energy   TEWEN  =       125.58566038
  -Hartree energ DENC   =      -281.62174126
  -exchange      EXHF   =         0.00000000
  -V(xc)+E(xc)   XCENC  =        24.60659469
  PAW double counting   =       451.55804737     -452.33613931
  entropy T*S    EENTRO =        -0.00000000
  eigenvalues    EBANDS =       -89.03743652
  atomic energy  EATOM  =       197.04175453
  Solvation  Ediel_sol  =         0.00000000
  ---------------------------------------------------
  free energy    TOTEN  =       -23.95900062 eV

  energy without entropy =      -23.95900062  energy(sigma->0) =      -23.95900062


--------------------------------------------------------------------------------------------------------




--------------------------------------- Iteration      1(  15)  ---------------------------------------


    POTLOK:  cpu time    1.4858: real time    1.4893
    SETDIJ:  cpu time    0.0076: real time    0.0076
     EDDAV:  cpu time    0.4621: real time    0.4632
       DOS:  cpu time    0.0001: real time    0.0001
    CHARGE:  cpu time    0.0950: real time    0.0952
    MIXING:  cpu time    0.0417: real time    0.0418
    --------------------------------------------
      LOOP:  cpu time    2.0923: real time    2.0973

 eigenvalue-minimisations  :    16
 total energy-change (2. order) :-0.3618509E-03  (-0.3106740E-05)
 number of electron       8.0000004 magnetization 
 augmentation part        0.1819837 magnetization 

 Broyden mixing:
  rms(total) = 0.69449E-03    rms(broyden)= 0.69446E-03
  rms(prec ) = 0.94643E-03
  weight for this iteration     100.00

 eigenvalues of (default mixing * dielectric matrix)
  average eigenvalue GAMMA=   2.5473
  7.4140  4.7133  2.8132  2.8132  2.3091  1.2133  1.0090  1.0875  1.0503  1.0503

 Free energy of the ion-electron system (eV)
  ---------------------------------------------------
  alpha Z        PSCENC =         0.24425949
  Ewald energy   TEWEN  =       125.58566038
  -Hartree energ DENC   =      -281.62158509
  -exchange      EXHF   =         0.00000000
  -V(xc)+E(xc)   XCENC  =        24.60629523
  PAW double counting   =       450.84747184     -451.62544858
  entropy T*S    EENTRO =        -0.00000000
  eigenvalues    EBANDS =       -89.03777027
  atomic energy  EATOM  =       197.04175453
  Solvation  Ediel_sol  =         0.00000000
  ---------------------------------------------------
  free energy    TOTEN  =       -23.95936247 eV

  energy without entropy =      -23.95936247  energy(sigma->0) =      -23.95936247


--------------------------------------------------------------------------------------------------------




--------------------------------------- Iteration      1(  16)  ---------------------------------------


    POTLOK:  cpu time    1.4427: real time    1.4462
    SETDIJ:  cpu time    0.0062: real time    0.0062
     EDDAV:  cpu time    0.6019: real time    0.6033
       DOS:  cpu time    0.0001: real time    0.0001
    CHARGE:  cpu time    0.0913: real time    0.0916
    MIXING:  cpu time    0.0422: real time    0.0423
    --------------------------------------------
      LOOP:  cpu time    2.1843: real time    2.1896

 eigenvalue-minimisations  :    24
 total energy-change (2. order) :-0.3818589E-04  (-0.9050467E-06)
 number of electron       8.0000004 magnetization 
 augmentation part        0.1819607 magnetization 

 Broyden mixing:
  rms(total) = 0.20712E-03    rms(broyden)= 0.20701E-03
  rms(prec ) = 0.27901E-03
  weight for this iteration     100.00

 eigenvalues of (default mixing * dielectric matrix)
  average eigenvalue GAMMA=   2.5978
  7.8465  4.8257  3.5286  2.6465  2.4050  1.9972  1.2679  1.0850  0.9839  0.9949
  0.9949

 Free energy of the ion-electron system (eV)
  ---------------------------------------------------
  alpha Z        PSCENC =         0.24425949
  Ewald energy   TEWEN  =       125.58566038
  -Hartree energ DENC   =      -281.64675882
  -exchange      EXHF   =         0.00000000
  -V(xc)+E(xc)   XCENC  =        24.60785899
  PAW double counting   =       451.14786978     -451.92607214
  entropy T*S    EENTRO =        -0.00000000
  eigenvalues    EBANDS =       -89.01397287
  atomic energy  EATOM  =       197.04175453
  Solvation  Ediel_sol  =         0.00000000
  ---------------------------------------------------
  free energy    TOTEN  =       -23.95940066 eV

  energy without entropy =      -23.95940066  energy(sigma->0) =      -23.95940066


--------------------------------------------------------------------------------------------------------




--------------------------------------- Iteration      1(  17)  ---------------------------------------


    POTLOK:  cpu time    1.5481: real time    1.5518
    SETDIJ:  cpu time    0.0063: real time    0.0063
     EDDAV:  cpu time    0.4268: real time    0.4278
       DOS:  cpu time    0.0001: real time    0.0001
    CHARGE:  cpu time    0.0908: real time    0.0910
    MIXING:  cpu time    0.0444: real time    0.0445
    --------------------------------------------
      LOOP:  cpu time    2.1164: real time    2.1214

 eigenvalue-minimisations  :    16
 total energy-change (2. order) :-0.2953001E-04  (-0.1253535E-06)
 number of electron       8.0000004 magnetization 
 augmentation part        0.1819586 magnetization 

 Broyden mixing:
  rms(total) = 0.12071E-03    rms(broyden)= 0.12069E-03
  rms(prec ) = 0.17997E-03
  weight for this iteration     100.00

 eigenvalues of (default mixing * dielectric matrix)
  average eigenvalue GAMMA=   2.5887
  8.4016  5.1687  3.8424  2.7292  2.4021  2.0780  1.2904  1.1682  0.9927  0.9927
  0.9993  0.9993

 Free energy of the ion-electron system (eV)
  ---------------------------------------------------
  alpha Z        PSCENC =         0.24425949
  Ewald energy   TEWEN  =       125.58566038
  -Hartree energ DENC   =      -281.65181649
  -exchange      EXHF   =         0.00000000
  -V(xc)+E(xc)   XCENC  =        24.60801409
  PAW double counting   =       451.25769606     -452.03587573
  entropy T*S    EENTRO =        -0.00000000
  eigenvalues    EBANDS =       -89.00912252
  atomic energy  EATOM  =       197.04175453
  Solvation  Ediel_sol  =         0.00000000
  ---------------------------------------------------
  free energy    TOTEN  =       -23.95943019 eV

  energy without entropy =      -23.95943019  energy(sigma->0) =      -23.95943019


--------------------------------------------------------------------------------------------------------




--------------------------------------- Iteration      1(  18)  ---------------------------------------


    POTLOK:  cpu time    1.5249: real time    1.5284
    SETDIJ:  cpu time    0.0063: real time    0.0063
     EDDAV:  cpu time    0.7877: real time    0.7896
       DOS:  cpu time    0.0001: real time    0.0001
    CHARGE:  cpu time    0.0917: real time    0.0919
    MIXING:  cpu time    0.0444: real time    0.0445
    --------------------------------------------
      LOOP:  cpu time    2.4551: real time    2.4609

 eigenvalue-minimisations  :    32
 total energy-change (2. order) :-0.3381861E-05  (-0.2456959E-07)
 number of electron       8.0000004 magnetization 
 augmentation part        0.1819631 magnetization 

 Broyden mixing:
  rms(total) = 0.36879E-04    rms(broyden)= 0.36865E-04
  rms(prec ) = 0.66104E-04
  weight for this iteration     100.00

 eigenvalues of (default mixing * dielectric matrix)
  average eigenvalue GAMMA=   2.5795
  8.4102  5.3361  3.7279  2.7887  2.2492  2.2988  2.2988  1.2662  1.1658  1.0142
  0.9682  1.0049  1.0049

 Free energy of the ion-electron system (eV)
  ---------------------------------------------------
  alpha Z        PSCENC =         0.24425949
  Ewald energy   TEWEN  =       125.58566038
  -Hartree energ DENC   =      -281.64896740
  -exchange      EXHF   =         0.00000000
  -V(xc)+E(xc)   XCENC  =        24.60785292
  PAW double counting   =       451.25892176     -452.03706794
  entropy T*S    EENTRO =        -0.00000000
  eigenvalues    EBANDS =       -89.01184731
  atomic energy  EATOM  =       197.04175453
  Solvation  Ediel_sol  =         0.00000000
  ---------------------------------------------------
  free energy    TOTEN  =       -23.95943357 eV

  energy without entropy =      -23.95943357  energy(sigma->0) =      -23.95943357


--------------------------------------------------------------------------------------------------------




--------------------------------------- Iteration      1(  19)  ---------------------------------------


    POTLOK:  cpu time    1.5717: real time    1.5754
    SETDIJ:  cpu time    0.0062: real time    0.0062
     EDDAV:  cpu time    0.4244: real time    0.4254
       DOS:  cpu time    0.0001: real time    0.0001
    CHARGE:  cpu time    0.0889: real time    0.0891
    MIXING:  cpu time    0.0454: real time    0.0455
    --------------------------------------------
      LOOP:  cpu time    2.1367: real time    2.1417

 eigenvalue-minimisations  :    16
 total energy-change (2. order) :-0.3315972E-05  (-0.1376092E-07)
 number of electron       8.0000004 magnetization 
 augmentation part        0.1819652 magnetization 

 Broyden mixing:
  rms(total) = 0.22022E-04    rms(broyden)= 0.22007E-04
  rms(prec ) = 0.36739E-04
  weight for this iteration     100.00

 eigenvalues of (default mixing * dielectric matrix)
  average eigenvalue GAMMA=   2.5322
  8.5094  5.3971  4.0476  3.1566  2.6342  2.3374  1.8379  1.3791  1.2297  1.0220
  1.0220  0.9773  0.9773  0.9237

 Free energy of the ion-electron system (eV)
  ---------------------------------------------------
  alpha Z        PSCENC =         0.24425949
  Ewald energy   TEWEN  =       125.58566038
  -Hartree energ DENC   =      -281.64636716
  -exchange      EXHF   =         0.00000000
  -V(xc)+E(xc)   XCENC  =        24.60768311
  PAW double counting   =       451.24789202     -452.02602289
  entropy T*S    EENTRO =        -0.00000000
  eigenvalues    EBANDS =       -89.01429636
  atomic energy  EATOM  =       197.04175453
  Solvation  Ediel_sol  =         0.00000000
  ---------------------------------------------------
  free energy    TOTEN  =       -23.95943689 eV

  energy without entropy =      -23.95943689  energy(sigma->0) =      -23.95943689


--------------------------------------------------------------------------------------------------------




--------------------------------------- Iteration      1(  20)  ---------------------------------------


    POTLOK:  cpu time    1.5623: real time    1.5660
    SETDIJ:  cpu time    0.0062: real time    0.0063
     EDDAV:  cpu time    0.7796: real time    0.7814
       DOS:  cpu time    0.0001: real time    0.0001
    --------------------------------------------
      LOOP:  cpu time    2.3482: real time    2.3538

 eigenvalue-minimisations  :    32
 total energy-change (2. order) :-0.2702636E-06  (-0.1264603E-08)
 number of electron       8.0000004 magnetization 
 augmentation part        0.1819652 magnetization 

 Free energy of the ion-electron system (eV)
  ---------------------------------------------------
  alpha Z        PSCENC =         0.24425949
  Ewald energy   TEWEN  =       125.58566038
  -Hartree energ DENC   =      -281.64688362
  -exchange      EXHF   =         0.00000000
  -V(xc)+E(xc)   XCENC  =        24.60770125
  PAW double counting   =       451.25454847     -452.03268076
  entropy T*S    EENTRO =        -0.00000000
  eigenvalues    EBANDS =       -89.01379688
  atomic energy  EATOM  =       197.04175453
  Solvation  Ediel_sol  =         0.00000000
  ---------------------------------------------------
  free energy    TOTEN  =       -23.95943716 eV

  energy without entropy =      -23.95943716  energy(sigma->0) =      -23.95943716


--------------------------------------------------------------------------------------------------------




 average (electrostatic) potential at core
  the test charge radii are     0.5201  0.6991
  (the norm of the test charge is              1.0000)
       1 -41.6927       2 -41.3890       3 -41.5114       4 -41.1332       5 -58.0434



 E-fermi :  -8.6637     XC(G=0):  -0.7069     alpha+bet : -0.2124


 k-point     1 :       0.0000    0.0000    0.0000
  band No.  band energies     occupation 
      1     -16.7969      2.00000
      2      -9.5910      2.00000
      3      -9.2058      2.00000
      4      -8.9132      2.00000
      5      -0.5471      0.00000
      6       0.9958      0.00000
      7       1.0220      0.00000
      8       1.0301      0.00000


--------------------------------------------------------------------------------------------------------


 soft charge-density along one line, spin component           1
         0         1         2         3         4         5         6         7         8         9
 total charge-density along one line

 pseudopotential strength for first ion, spin component:           1
 -2.343  -4.038   0.001   0.001  -0.001
 -4.038  -6.872   0.003   0.003  -0.003
  0.001   0.003  -0.336   0.002  -0.002
  0.001   0.003   0.002  -0.336  -0.002
 -0.001  -0.003  -0.002  -0.002  -0.336
 total augmentation occupancy for first ion, spin component:           1
  3.610  -0.648  -0.263  -0.254   0.270
 -0.648   0.131   0.049   0.046  -0.049
 -0.263   0.049   0.026   0.015  -0.016
 -0.254   0.046   0.015   0.025  -0.016
  0.270  -0.049  -0.016  -0.016   0.026


------------------------ aborting loop because EDIFF is reached ----------------------------------------


    CHARGE:  cpu time    0.0919: real time    0.0921
    FORLOC:  cpu time    0.1093: real time    0.1095
    FORNL :  cpu time    0.1553: real time    0.1556
    STRESS:  cpu time    0.5832: real time    0.5846
    FORCOR:  cpu time    1.6001: real time    1.6039
    FORHAR:  cpu time    0.5262: real time    0.5274
    MIXING:  cpu time    0.0446: real time    0.0447
    OFIELD:  cpu time    0.0000: real time    0.0000

  FORCE on cell =-STRESS in cart. coord.  units (eV):
  Direction    XX          YY          ZZ          XY          YZ          ZX
  --------------------------------------------------------------------------------------
  Alpha Z     0.24426     0.24426     0.24426
  Ewald      42.01779    33.45115    50.11668    -2.18727     0.18122    -4.00865
  Hartree    92.91956    90.57001    98.15834    -0.73135    -0.88448    -1.20189
  E(xc)     -27.06269   -27.09441   -27.04083    -0.00679    -0.01303    -0.01556
  Local    -193.48169  -184.27753  -206.18164     2.48534     1.32231     4.42957
  n-local   -15.61916   -15.56082   -15.61123     0.01286    -0.09374     0.01328
  augment     0.11871     0.13147     0.11415     0.00365    -0.00642     0.00609
  Kinetic   100.15744   101.65680    99.08731     0.33078     0.59477     0.77638
  Fock        0.00000     0.00000     0.00000     0.00000     0.00000     0.00000
  -------------------------------------------------------------------------------------
  Total      -0.70578    -0.87908    -1.11296    -0.09280     1.10063    -0.00078
  in kB      -1.14016    -1.42011    -1.79795    -0.14991     1.77803    -0.00125
  external pressure =       -1.45 kB  Pullay stress =        0.00 kB


 VOLUME and BASIS-vectors are now :
 -----------------------------------------------------------------------------
  energy-cutoff  :      400.00
  volume of cell :      991.78
      direct lattice vectors                 reciprocal lattice vectors
    10.066470100  0.000000000  0.000000000     0.099339688  0.002764962  0.002631667
    -0.281599800 10.117331500  0.000000000    -0.000000000  0.098840292  0.001081372
    -0.255010300 -0.106539800  9.738018100     0.000000000 -0.000000000  0.102690300

  length of vectors
    10.066470100 10.121249682  9.741939104     0.099412999  0.098846207  0.102690300


 FORCES acting on ions
    electron-ion (+dipol)            ewald-force                    non-local-force                 convergence-correction
 -----------------------------------------------------------------------------------------------
   0.316E+02 -.313E+02 -.296E+02   -.353E+02 0.352E+02 0.330E+02   0.346E+01 -.332E+01 -.326E+01   -.504E-04 0.581E-04 0.177E-04
   -.458E+02 -.214E+02 0.116E+02   0.500E+02 0.235E+02 -.125E+02   -.466E+01 -.209E+01 0.123E+01   0.647E-04 0.486E-04 -.147E-04
   0.229E+02 0.120E+02 0.458E+02   -.253E+02 -.134E+02 -.504E+02   0.233E+01 0.124E+01 0.482E+01   -.436E-04 -.128E-04 -.457E-04
   -.875E+01 0.414E+02 -.275E+02   0.934E+01 -.443E+02 0.292E+02   -.841E+00 0.390E+01 -.265E+01   0.601E-05 -.707E-04 0.246E-04
   -.863E+00 0.547E+00 -.644E+00   0.131E+01 -.104E+01 0.757E+00   0.680E+00 -.982E+00 0.158E+00   -.806E-04 0.712E-04 -.625E-04
 -----------------------------------------------------------------------------------------------
   -.963E+00 0.125E+01 -.295E+00   -.533E-14 -.711E-14 0.000E+00   0.963E+00 -.125E+01 0.296E+00   -.104E-03 0.945E-04 -.805E-04


 POSITION                                       TOTAL-FORCE (eV/Angst)
 -----------------------------------------------------------------------------------
      4.17815      5.31653      4.93460        -0.214478      0.597435      0.150427
      5.80199      5.14339      4.08512        -0.506663      0.022829      0.364119
      4.34260      4.43400      3.37763        -0.161532     -0.142740      0.157971
      5.01699      3.74524      4.95994        -0.246535      0.992909     -0.944198
      4.81680      4.68733      4.33471         1.129208     -1.470433      0.271682
 -----------------------------------------------------------------------------------
    total drift:                               -0.000517      0.000149      0.000003


--------------------------------------------------------------------------------------------------------



  FREE ENERGIE OF THE ION-ELECTRON SYSTEM (eV)
  ---------------------------------------------------
  free  energy   TOTEN  =       -23.95943716 eV

  energy  without entropy=      -23.95943716  energy(sigma->0) =      -23.95943716



--------------------------------------------------------------------------------------------------------


    POTLOK:  cpu time    1.6063: real time    1.6101


--------------------------------------------------------------------------------------------------------


     LOOP+:  cpu time   44.9137: real time   45.0248
    4ORBIT:  cpu time    0.0000: real time    0.0000

 total amount of memory used by VASP MPI-rank0   274959. kBytes
=======================================================================

   base      :      30000. kBytes
   nonlr-proj:       1242. kBytes
   fftplans  :      86708. kBytes
   grid      :     154683. kBytes
   one-center:         15. kBytes
   wavefun   :       2311. kBytes

  
  
 General timing and accounting informations for this job:
 ========================================================
  
                  Total CPU time used (sec):       46.802
                            User time (sec):       45.427
                          System time (sec):        1.375
                         Elapsed time (sec):       46.926
  
                   Maximum memory used (kb):      389220.
                   Average memory used (kb):           0.
  
                          Minor page faults:       173713
                          Major page faults:            0
                 Voluntary context switches:          136
