1.265109999999999957e+02 8.628189999999999316e+01 6.351299999999999812e+01 1.263859999999999957e+02 8.529800000000000182e+01 6.303370000000000317e+01
3.856710000000000349e+01 1.318089999999999975e+02 1.147759999999999962e+02 3.898279999999999745e+01 1.318540000000000134e+02 1.158010000000000019e+02
1.297959999999999923e+02 1.277159999999999940e+02 7.103100000000000414e+00 1.299130000000000109e+02 1.279710000000000036e+02 8.256520000000000081e+00
8.700440000000000396e+01 1.264989999999999952e+02 5.285479999999999734e+01 8.729739999999999611e+01 1.258709999999999951e+02 5.379650000000000176e+01
4.576689999999999969e+01 9.088509999999999422e+01 1.205049999999999955e+02 4.513389999999999702e+01 9.039520000000000266e+01 1.197289999999999992e+02
1.290429999999999922e+01 2.255430000000000135e+01 3.350820000000000221e+01 1.198889999999999922e+01 2.189039999999999964e+01 3.357999999999999829e+01
7.306810000000000116e+01 4.348499999999999943e+01 1.147759999999999962e+02 7.211320000000000618e+01 4.371820000000000306e+01 1.143460000000000036e+02
1.485530000000000017e+00 1.560500000000000043e+01 1.760709999999999908e+01 1.862530000000000019e+00 1.581900000000000084e+01 1.865030000000000143e+01
2.348580000000000112e+01 1.201449999999999960e+02 5.190550000000000352e+01 2.437219999999999942e+01 1.196550000000000011e+02 5.239470000000000027e+01
8.090229999999999677e+01 2.358139999999999858e+01 1.042939999999999969e+02 8.176900000000000546e+01 2.424279999999999902e+01 1.046760000000000019e+02
6.607070000000000221e+00 1.186730000000000018e+02 1.224569999999999936e+02 6.295919999999999739e+00 1.192469999999999999e+02 1.215319999999999965e+02
8.969819999999999993e+01 1.105090000000000003e+02 3.372399999999999665e+01 9.009990000000000521e+01 1.113580000000000041e+02 3.312839999999999918e+01
3.973290000000000077e+01 4.824680000000000035e+01 3.965350000000000108e+01 3.893829999999999814e+01 4.751879999999999882e+01 3.940090000000000003e+01
1.244419999999999931e+02 1.322609999999999957e+02 6.577589999999999293e+01 1.244839999999999947e+02 1.333220000000000027e+02 6.546939999999999316e+01
1.053780000000000001e+02 3.410430000000000206e+01 1.023859999999999957e+02 1.048379999999999939e+02 3.450209999999999866e+01 1.015120000000000005e+02
1.190979999999999990e+02 6.153920000000000101e+01 8.461129999999999995e+01 1.187750000000000057e+02 6.208100000000000307e+01 8.373220000000000596e+01
4.687019999999999698e+01 2.711909999999999954e+01 1.441680000000000073e+00 4.662199999999999989e+01 2.690020000000000167e+01 3.667790000000000217e-01
1.279669999999999987e+02 1.103370000000000033e+02 4.763360000000000127e+01 1.273409999999999940e+02 1.094069999999999965e+02 4.790189999999999770e+01
9.780459999999999354e+01 5.656620000000000203e+01 1.200030000000000001e+02 9.812479999999999336e+01 5.703499999999999659e+01 1.190349999999999966e+02
1.094110000000000014e+02 2.708360000000000056e+01 1.181800000000000068e+02 1.097039999999999935e+02 2.800619999999999976e+01 1.186250000000000000e+02
5.804840000000000089e+01 5.004110000000000014e+01 3.682189999999999941e+01 5.807860000000000156e+01 5.008489999999999753e+01 3.791060000000000230e+01
6.467629999999999768e+01 8.920900000000000318e+01 9.817210000000000036e+01 6.582769999999999300e+01 8.922360000000000468e+01 9.820749999999999602e+01
5.830619999999999692e+01 5.765390000000000015e+01 3.781000000000000227e+01 5.867719999999999914e+01 5.683859999999999957e+01 3.705230000000000246e+01
1.048659999999999997e+02 1.164830000000000041e+02 1.024939999999999998e+02 1.054719999999999942e+02 1.158409999999999940e+02 1.031719999999999970e+02
1.822449999999999903e+01 2.110050000000000026e+01 5.815590000000000259e+01 1.714329999999999998e+01 2.103460000000000107e+01 5.848610000000000042e+01
3.297950000000000159e+01 1.340099999999999909e+02 1.186400000000000006e+02 3.398519999999999897e+01 1.339230000000000018e+02 1.191059999999999945e+02
1.206129999999999924e+00 9.051760000000000161e+01 1.279539999999999935e+02 5.993140000000000134e-01 9.085689999999999600e+01 1.270870000000000033e+02
1.178100000000000023e+02 1.260379999999999967e+02 5.808559999999999945e+00 1.180460000000000065e+02 1.251650000000000063e+02 6.422369999999999912e+00
2.200659999999999883e+01 1.108550000000000040e+02 1.244120000000000061e+02 2.128000000000000114e+01 1.108040000000000020e+02 1.253280000000000030e+02
1.038430000000000035e+02 4.238190000000000168e+01 9.079850000000000421e+01 1.046419999999999959e+02 4.170089999999999719e+01 9.120569999999999311e+01
1.315840000000000032e+01 1.070379999999999967e+02 7.569700000000000273e+01 1.264429999999999943e+01 1.070240000000000009e+02 7.667889999999999873e+01
5.128820000000000334e+01 1.648000000000000043e+01 1.291169999999999902e+02 5.085370000000000346e+01 1.740950000000000131e+01 1.286990000000000123e+02
1.143479999999999990e+02 5.732489999999999952e+01 9.694840000000000657e+01 1.145379999999999967e+02 5.706340000000000146e+01 9.593359999999999843e+01
1.627339999999999876e+01 4.742860000000000298e+01 3.327389999999999759e+01 1.640210000000000079e+01 4.688779999999999859e+01 3.229610000000000269e+01
1.257729999999999961e+02 9.235299999999999443e+01 1.283979999999999961e+02 1.260460000000000065e+02 9.324190000000000111e+01 1.277890000000000015e+02
1.616420000000000101e+01 1.095199999999999960e+02 5.014419999999999789e+01 1.724360000000000070e+01 1.093750000000000000e+02 5.026959999999999695e+01
8.849590000000000600e+01 1.245520000000000067e+02 4.951769999999999783e+01 8.920140000000000668e+01 1.242609999999999957e+02 5.028340000000000032e+01
1.114579999999999984e+02 3.086090000000000000e+00 8.765519999999999357e+01 1.119920000000000044e+02 2.741909999999999847e+00 8.866160000000000707e+01
9.040430000000000632e+01 1.235139999999999958e+02 4.736019999999999897e+01 8.958589999999999520e+01 1.228040000000000020e+02 4.776129999999999853e+01
6.650220000000000198e+01 1.055850000000000044e+01 6.127929999999999922e+01 6.671519999999999584e+01 9.636839999999999407e+00 6.184219999999999828e+01
6.782899999999999352e+01 1.090439999999999969e+02 2.237539999999999907e+01 6.874509999999999366e+01 1.084159999999999968e+02 2.236060000000000159e+01
1.295900000000000034e+02 8.552189999999999515e+00 5.187749999999999773e+01 1.290120000000000005e+02 8.815670000000000783e+00 5.280519999999999925e+01
1.114140000000000015e+02 3.257529999999999859e+01 5.588739999999999952e+01 1.112090000000000032e+02 3.251579999999999870e+01 5.471600000000000108e+01
1.109530000000000030e+02 1.027590000000000003e+02 1.142210000000000036e+01 1.119230000000000018e+02 1.024950000000000045e+02 1.187030000000000030e+01
7.706130000000000280e+01 1.640859999999999985e+01 8.168359999999999843e+01 7.810980000000000700e+01 1.617040000000000077e+01 8.180679999999999552e+01
6.531740000000000634e+01 3.543240000000000123e+01 3.836740000000000350e+01 6.633199999999999363e+01 3.509660000000000224e+01 3.800889999999999702e+01
4.429480000000000217e+01 1.461319999999999952e+00 7.057069999999999732e-01 4.322549999999999670e+01 1.114689999999999959e+00 1.097520000000000051e+00
4.175110000000000099e+01 7.846540000000000070e+00 4.674430000000000263e+01 4.180839999999999890e+01 7.565070000000000405e+00 4.565460000000000207e+01
5.807300000000000040e+01 1.081970000000000027e+02 1.143259999999999934e+02 5.887369999999999948e+01 1.085229999999999961e+02 1.150430000000000064e+02
1.236550000000000011e+02 6.398490000000000322e+01 6.716620000000000346e+01 1.227920000000000016e+02 6.408660000000000423e+01 6.791360000000000241e+01
9.798970000000000624e+00 5.373599999999999710e+00 2.556390000000000029e+01 1.009159999999999968e+01 6.388740000000000308e+00 2.588139999999999930e+01
6.169689999999999941e+01 1.233130000000000024e+02 2.896829999999999927e+01 6.184029999999999916e+01 1.244210000000000065e+02 2.875000000000000000e+01
2.112099999999999866e+01 6.793080000000000496e+01 1.371570000000000107e+02 2.171580000000000155e+01 6.822329999999999472e+01 1.381419999999999959e+02
7.462990000000000634e+01 1.302560000000000002e+02 1.387410000000000139e+02 7.367950000000000443e+01 1.299170000000000016e+02 1.392640000000000100e+02
9.590489999999999782e+01 1.219650000000000034e+02 9.102989999999999782e+01 9.688070000000000448e+01 1.225789999999999935e+02 9.094469999999999743e+01
1.149549999999999983e+02 4.449960000000000093e+01 1.285440000000000111e+02 1.147289999999999992e+02 4.502700000000000102e+01 1.294910000000000139e+02
5.093419999999999703e+01 2.894950000000000134e+00 9.253640000000000043e+01 5.159770000000000323e+01 2.078269999999999840e+00 9.275960000000000605e+01
5.489920000000000044e+01 1.174749999999999943e+02 5.545859999999999701e+01 5.438770000000000238e+01 1.181569999999999965e+02 5.612610000000000099e+01
