-2.980302145614964047e+03
-2.980303192355358533e+03
-2.979876112206098242e+03
-2.980031751974708186e+03
-2.980296732862068893e+03
-2.980247959772011654e+03
-2.980214024288956352e+03
-2.980260421335188767e+03
-2.980275769754332487e+03
-2.980132415736132771e+03
-2.980251277874027892e+03
-2.980299970608861258e+03
-2.980303220954525386e+03
-2.980303360576148407e+03
-2.980302231113139442e+03
-2.980257898948529146e+03
-2.980276004370904957e+03
-2.980148301117561459e+03
-2.980282533362075355e+03
-2.980165639777495016e+03
-2.980283989688255588e+03
-2.980152511399298419e+03
-2.979999169986004290e+03
-2.980298907813748428e+03
-2.980250518676351476e+03
-2.980300300982301906e+03
-2.980300766623543041e+03
-2.980290801188037676e+03
-2.980023008112754724e+03
-2.980272115618907719e+03
-2.980302703666073285e+03
-2.980302916241422281e+03
-2.980163044845280183e+03
-2.980275769917600883e+03
-2.980300556796543788e+03
-2.980296632833012609e+03
-2.980254171043036422e+03
-2.979846282050462833e+03
-2.980131803615999161e+03
-2.980301606448556868e+03
-2.980301222958490598e+03
-2.980276985341378804e+03
-2.979840998932611456e+03
-2.980301538175188853e+03
-2.980258951131201229e+03
-2.980268431442112615e+03
-2.979843756997087439e+03
-2.980269454046007468e+03
-2.980280117589627025e+03
-2.980186525387203346e+03
-2.980302939697637612e+03
-2.980225663279138189e+03
-2.979874203762735306e+03
-2.980233794313462568e+03
-2.980127059827823359e+03
-2.980303125959575937e+03
-2.980228943720595908e+03
-2.980260822893615568e+03
