7.062275893958121220e-02 5.559566244994074147e-01 2.708451201824889631e-01 -7.062275893958121220e-02 -5.559566244994074147e-01 -2.708451201824889631e-01
8.747731857422909318e-02 9.469939368507663754e-03 2.156606542951226835e-01 -8.747731857422909318e-02 -9.469939368507663754e-03 -2.156606542951226835e-01
9.363878783234367287e-01 2.040819319348581296e+00 9.231089727195822547e+00 -9.363878783234367287e-01 -2.040819319348581296e+00 -9.231089727195822547e+00
1.979659660642533181e+00 -4.243113340811173195e+00 6.362582918053065306e+00 -1.979659660642533181e+00 4.243113340811173195e+00 -6.362582918053065306e+00
-7.976012608668573423e-01 -6.173108643087856784e-01 -9.778186380891126239e-01 7.976012608668573423e-01 6.173108643087856784e-01 9.778186380891126239e-01
-3.140010286055145539e+00 -2.277354453403313439e+00 2.463381855763516481e-01 3.140010286055145539e+00 2.277354453403313439e+00 -2.463381855763516481e-01
5.072170148840177362e+00 -1.238652961597378033e+00 2.284066935825470601e+00 -5.072170148840177362e+00 1.238652961597378033e+00 -2.284066935825470601e+00
1.151191943818538954e+00 6.535102514618250646e-01 3.185522775270889895e+00 -1.151191943818538954e+00 -6.535102514618250646e-01 -3.185522775270889895e+00
2.204853709137429174e+00 -1.218841375972504082e+00 1.216850313519820537e+00 -2.204853709137429174e+00 1.218841375972504082e+00 -1.216850313519820537e+00
4.859898363057946646e+00 3.708736655415083572e+00 2.141943694676554877e+00 -4.859898363057946646e+00 -3.708736655415083572e+00 -2.141943694676554877e+00
-1.037791115523334584e+00 1.914522916393731178e+00 -3.085190042671714039e+00 1.037791115523334584e+00 -1.914522916393731178e+00 3.085190042671714039e+00
3.654275286640569775e-01 7.722861256261945861e-01 -5.417927245454582375e-01 -3.654275286640569775e-01 -7.722861256261945861e-01 5.417927245454582375e-01
-1.533855481013783051e-01 -1.405546109805504984e-01 -4.874729721447738917e-02 1.533855481013783051e-01 1.405546109805504984e-01 4.874729721447738917e-02
-1.836847672321839436e-03 -4.709150664173968742e-02 1.360062262681345155e-02 1.836847672321839436e-03 4.709150664173968742e-02 -1.360062262681345155e-02
2.941626109458314042e-01 -2.166696581031431756e-01 4.760662720268378223e-01 -2.941626109458314042e-01 2.166696581031431756e-01 -4.760662720268378223e-01
1.187463578976382328e+00 -1.991893484715825835e+00 3.231966929505169617e+00 -1.187463578976382328e+00 1.991893484715825835e+00 -3.231966929505169617e+00
-6.149558878845724497e-01 -5.423400096096088197e-01 -2.663141058444664644e+00 6.149558878845724497e-01 5.423400096096088197e-01 2.663141058444664644e+00
-3.370293782256443382e+00 -5.006971852376605803e+00 1.444508096111642326e+00 3.370293782256443382e+00 5.006971852376605803e+00 -1.444508096111642326e+00
6.979368094566040792e-01 1.021780186327703399e+00 -2.109852313650064204e+00 -6.979368094566040792e-01 -1.021780186327703399e+00 2.109852313650064204e+00
-1.981359005706423204e+00 -6.239033070566261330e+00 -3.009347121130206304e+00 1.981359005706423204e+00 6.239033070566261330e+00 3.009347121130206304e+00
-7.058861468677693485e-02 -1.023690978933056162e-01 -2.544409458680392255e+00 7.058861468677693485e-02 1.023690978933056162e-01 2.544409458680392255e+00
6.127779473542665833e+00 7.770455465035333575e-02 1.884043360072286122e-01 -6.127779473542665833e+00 -7.770455465035333575e-02 -1.884043360072286122e-01
2.618720568253848135e+00 -5.754733662737856470e+00 -5.348149556771907065e+00 -2.618720568253848135e+00 5.754733662737856470e+00 5.348149556771907065e+00
6.295526073804698086e-01 -6.669613387164172735e-01 7.043545405879869659e-01 -6.295526073804698086e-01 6.669613387164172735e-01 -7.043545405879869659e-01
-3.629926474891922439e+00 -2.212371204025928295e-01 1.108592103348788882e+00 3.629926474891922439e+00 2.212371204025928295e-01 -1.108592103348788882e+00
8.701671054701666241e-01 -7.528051838951933805e-02 4.031726631654346527e-01 -8.701671054701666241e-01 7.528051838951933805e-02 -4.031726631654346527e-01
-4.844090396762644746e-01 2.708228544272717198e-01 -6.920497540615769827e-01 4.844090396762644746e-01 -2.708228544272717198e-01 6.920497540615769827e-01
-4.397818327741927491e-01 1.626949169219843894e+00 -1.143930736514341850e+00 4.397818327741927491e-01 -1.626949169219843894e+00 1.143930736514341850e+00
-4.970124855705769562e+00 -3.489098864155139590e-01 6.265656331781454647e+00 4.970124855705769562e+00 3.489098864155139590e-01 -6.265656331781454647e+00
2.106237907949220833e+00 -1.795221560121820881e+00 1.073423934336919627e+00 -2.106237907949220833e+00 1.795221560121820881e+00 -1.073423934336919627e+00
-2.094578674057908652e-01 -5.700290445953161769e-03 4.000050638088929467e-01 2.094578674057908652e-01 5.700290445953161769e-03 -4.000050638088929467e-01
-1.463988832154373976e-01 3.131437816030302468e-01 -1.408231884389793687e-01 1.463988832154373976e-01 -3.131437816030302468e-01 1.408231884389793687e-01
-1.298495135512614862e+00 1.787078412938337690e+00 6.935204663290537752e+00 1.298495135512614862e+00 -1.787078412938337690e+00 -6.935204663290537752e+00
3.201746694670007942e-01 -1.345195423064994733e+00 -2.432207484466331504e+00 -3.201746694670007942e-01 1.345195423064994733e+00 2.432207484466331504e+00
2.263313503612700284e-01 7.369452298896725928e-01 -5.049185770229945858e-01 -2.263313503612700284e-01 -7.369452298896725928e-01 5.049185770229945858e-01
-1.456533095168913716e+00 1.956651319348858553e-01 -1.692025646805563610e-01 1.456533095168913716e+00 -1.956651319348858553e-01 1.692025646805563610e-01
-2.706247509123191897e+00 1.116233885374378065e+00 -2.937085746588424584e+00 2.706247509123191897e+00 -1.116233885374378065e+00 2.937085746588424584e+00
4.376970021814662992e+00 -2.821115460425563271e+00 8.249038487310667023e+00 -4.376970021814662992e+00 2.821115460425563271e+00 -8.249038487310667023e+00
-4.595767782180313787e+00 -3.987126164227361880e+00 2.252419070130963430e+00 4.595767782180313787e+00 3.987126164227361880e+00 -2.252419070130963430e+00
-1.448236710224350965e-01 6.266445866205485604e-01 -3.827400018095815648e-01 1.448236710224350965e-01 -6.266445866205485604e-01 3.827400018095815648e-01
6.652535090113934624e-01 -4.560220529687009083e-01 -1.075348559478423761e-02 -6.652535090113934624e-01 4.560220529687009083e-01 1.075348559478423761e-02
-1.407750830948552689e+00 6.416864669545885302e-01 2.259460242408429576e+00 1.407750830948552689e+00 -6.416864669545885302e-01 -2.259460242408429576e+00
-1.687073187486918702e+00 -4.896528050071628502e-01 -9.640171917199770846e+00 1.687073187486918702e+00 4.896528050071628502e-01 9.640171917199770846e+00
-6.726708851345162277e-01 1.830662626045787000e-01 -3.108444438558263245e-01 6.726708851345162277e-01 -1.830662626045787000e-01 3.108444438558263245e-01
-3.806495302160529448e+00 8.647643431066314168e-01 -4.472563388142815621e-01 3.806495302160529448e+00 -8.647643431066314168e-01 4.472563388142815621e-01
2.816678661599570699e+00 -9.322211996178976223e-01 -9.952787439903616473e-01 -2.816678661599570699e+00 9.322211996178976223e-01 9.952787439903616473e-01
-8.781535439030159651e+00 -2.846661532171261833e+00 3.217738957655145615e+00 8.781535439030159651e+00 2.846661532171261833e+00 -3.217738957655145615e+00
1.568975210438089407e-01 -7.707232033073191380e-01 -2.983750604336313117e+00 -1.568975210438089407e-01 7.707232033073191380e-01 2.983750604336313117e+00
1.837841506619954490e+00 7.482816874634359294e-01 1.645695495294878352e+00 -1.837841506619954490e+00 -7.482816874634359294e-01 -1.645695495294878352e+00
-4.119639186607694903e+00 4.854780016149623512e-01 3.567714874951510851e+00 4.119639186607694903e+00 -4.854780016149623512e-01 -3.567714874951510851e+00
-9.750354186869565620e-02 -3.381444194790077518e-01 -1.057697420596500071e-01 9.750354186869565620e-02 3.381444194790077518e-01 1.057697420596500071e-01
5.725760824415535577e-01 4.424080400355166809e+00 -8.716408619240381128e-01 -5.725760824415535577e-01 -4.424080400355166809e+00 8.716408619240381128e-01
4.767927012896624461e+00 2.344662185918898523e+00 7.895753354283929326e+00 -4.767927012896624461e+00 -2.344662185918898523e+00 -7.895753354283929326e+00
-3.612243197217825941e+00 -1.288527379108868942e+00 1.987771337520721104e+00 3.612243197217825941e+00 1.288527379108868942e+00 -1.987771337520721104e+00
5.541938811685256816e+00 3.487201492709397943e+00 -4.838459166153312174e-01 -5.541938811685256816e+00 -3.487201492709397943e+00 4.838459166153312174e-01
-5.573216232805664611e-02 1.301179881655553927e-01 2.335767196686843739e-01 5.573216232805664611e-02 -1.301179881655553927e-01 -2.335767196686843739e-01
-3.187318022490623015e+00 3.923212133899011800e+00 -1.072156123263291017e+00 3.187318022490623015e+00 -3.923212133899011800e+00 1.072156123263291017e+00
1.814448373995354302e+00 -2.419349190805605954e+00 -2.367924449381771268e+00 -1.814448373995354302e+00 2.419349190805605954e+00 2.367924449381771268e+00
