LAMMPS (16 Mar 2018)
clear
units 	metal
dimension	3
boundary	p	p    p
atom_style	atomic
box         tilt large
read_data   conf.lmp
  triclinic box = (0 0 0) to (2.57003 6.67713 23.0826) with tilt (1.28501 -14.1352 8.16093)
WARNING: Triclinic box skew is large (../domain.cpp:197)
  1 by 1 by 1 MPI processor grid
  reading atoms ...
  15 atoms
mass            1 1
neigh_modify    every 1 delay 0 check no
pair_style deepmd frozen_model.pb
pair_coeff
compute         mype all pe
thermo          100
thermo_style    custom step pe pxx pyy pzz pxy pxz pyz lx ly lz vol c_mype
dump            1 all custom 100 dump.relax id type xs ys zs fx fy fz
min_style       cg
minimize        1.000000e-12 1.000000e-06 5000 500000
WARNING: Using 'neigh_modify every 1 delay 0 check yes' setting during minimization (../min.cpp:168)
Neighbor list info ...
  update every 1 steps, delay 0 steps, check yes
  max neighbors/atom: 2000, page size: 100000
  master list distance cutoff = 10
  ghost atom cutoff = 10
  binsize = 5, bins = 4 3 5
  1 neighbor lists, perpetual/occasional/extra = 1 0 0
  (1) pair deepmd, perpetual
      attributes: , newton on
      pair build: full/bin/atomonly
      stencil: full/bin/3d
      bin: standard
Per MPI rank memory allocation (min/avg/max) = 5.169 | 5.169 | 5.169 Mbytes
Step PotEng Pxx Pyy Pzz Pxy Pxz Pyz Lx Ly Lz Volume c_mype 
       0   -52.546873   -19953.689   -16999.274   -8184.3427  0.044432357  -0.16130306   -1709.7951    2.5700275    6.6771265      23.0826    396.10663   -52.546873 
      20   -52.625116   -15158.596   -10134.029  0.054296011 0.0056116576 0.0025557066   0.21120499    2.5700275    6.6771265      23.0826    396.10663   -52.625116 
Loop time of 1.64809 on 1 procs for 20 steps with 15 atoms

275.3% CPU use with 1 MPI tasks x no OpenMP threads

Minimization stats:
  Stopping criterion = energy tolerance
  Energy initial, next-to-last, final = 
        -52.5468727609     -52.6251157399     -52.6251157399
  Force two-norm initial, final = 0.880257 8.68419e-06
  Force max component initial, final = 0.428107 3.60567e-06
  Final line search alpha, max atom move = 1 3.60567e-06
  Iterations, force evaluations = 20 40

MPI task timing breakdown:
Section |  min time  |  avg time  |  max time  |%varavg| %total
---------------------------------------------------------------
Pair    | 1.6468     | 1.6468     | 1.6468     |   0.0 | 99.92
Neigh   | 0          | 0          | 0          |   0.0 |  0.00
Comm    | 0.0005722  | 0.0005722  | 0.0005722  |   0.0 |  0.03
Output  | 0          | 0          | 0          |   0.0 |  0.00
Modify  | 0          | 0          | 0          |   0.0 |  0.00
Other   |            | 0.0007384  |            |       |  0.04

Nlocal:    15 ave 15 max 15 min
Histogram: 1 0 0 0 0 0 0 0 0 0
Nghost:    1145 ave 1145 max 1145 min
Histogram: 1 0 0 0 0 0 0 0 0 0
Neighs:    0 ave 0 max 0 min
Histogram: 1 0 0 0 0 0 0 0 0 0

Total # of neighbors = 0
Ave neighs/atom = 0
Neighbor list builds = 0
Dangerous builds not checked
variable        N equal count(all)
variable        V equal vol
variable        E equal "c_mype"
variable        tmplx equal lx
variable        tmply equal ly
variable        Pxx equal pxx
variable        Pyy equal pyy
variable        Pzz equal pzz
variable        Pxy equal pxy
variable        Pxz equal pxz
variable        Pyz equal pyz
variable        Epa equal ${E}/${N}
variable        Epa equal -52.6251157399415/${N}
variable        Epa equal -52.6251157399415/15
variable        Vpa equal ${V}/${N}
variable        Vpa equal 396.106628851791/${N}
variable        Vpa equal 396.106628851791/15
variable        AA equal (${tmplx}*${tmply})
variable        AA equal (2.5700275354*${tmply})
variable        AA equal (2.5700275354*6.6771264672)
print "All done"
All done
print "Total number of atoms = ${N}"
Total number of atoms = 15
print "Final energy per atoms = ${Epa}"
Final energy per atoms = -3.50834104932943
print "Final volume per atoms = ${Vpa}"
Final volume per atoms = 26.4071085901194
print "Final Base area = ${AA}"
Final Base area = 17.1603988780521
print "Final Stress (xx yy zz xy xz yz) = ${Pxx} ${Pyy} ${Pzz} ${Pxy} ${Pxz} ${Pyz}"
Final Stress (xx yy zz xy xz yz) = -15158.595873329 -10134.0293136966 0.0542960111705931 0.00561165757275506 0.00255570656425011 0.211204987514008
Total wall time: 0:00:03
