 vasp.5.4.4.18Apr17-6-g9f103f2a35 (build Jul 12 2018 13:43:46) complex           
 executed on             LinuxGNU date 2019.06.24  12:44:16
 running on    1 total cores
 distrk:  each k-point on    1 cores,    1 groups
 distr:  one band on NCORES_PER_BAND=   1 cores,    1 groups


--------------------------------------------------------------------------------------------------------


 INCAR:
 POTCAR:    PAW_PBE H 15Jun2001                   
 POTCAR:    PAW_PBE C 08Apr2002                   
 POTCAR:    PAW_PBE H 15Jun2001                   
   VRHFIN =H: ultrasoft test                                                    
   LEXCH  = PE                                                                  
   EATOM  =    12.4884 eV,    0.9179 Ry                                         
                                                                                
   TITEL  = PAW_PBE H 15Jun2001                                                 
   LULTRA =        F    use ultrasoft PP ?                                      
   IUNSCR =        0    unscreen: 0-lin 1-nonlin 2-no                           
   RPACOR =    0.000    partial core radius                                     
   POMASS =    1.000; ZVAL   =    1.000    mass and valenz                      
   RCORE  =    1.100    outmost cutoff radius                                   
   RWIGS  =    0.700; RWIGS  =    0.370    wigner-seitz radius (au A)           
   ENMAX  =  250.000; ENMIN  =  200.000 eV                                      
   RCLOC  =    0.701    cutoff for local pot                                    
   LCOR   =        T    correct aug charges                                     
   LPAW   =        T    paw PP                                                  
   EAUG   =  400.000                                                            
   RMAX   =    1.123    core radius for proj-oper                               
   RAUG   =    1.200    factor for augmentation sphere                          
   RDEP   =    1.112    radius for radial grids                                 
   RDEPT  =    0.926    core radius for aug-charge                              
                                                                                
   Atomic configuration                                                         
    2 entries                                                                   
     n  l   j            E        occ.                                          
     1  0  0.50        -6.4927   1.0000                                         
     2  1  0.50        -3.4015   0.0000                                         
   Description                                                                  
     l       E           TYP  RCUT    TYP  RCUT                                 
     0     -6.4927494     23  1.100                                             
     0      6.8029130     23  1.100                                             
     1     -4.0817478     23  1.100                                             
  local pseudopotential read in
  atomic valenz-charges read in
  non local Contribution for L=           0  read in
    real space projection operators read in
  non local Contribution for L=           0  read in
    real space projection operators read in
  non local Contribution for L=           1  read in
    real space projection operators read in
    PAW grid and wavefunctions read in

   number of l-projection  operators is LMAX  =           3
   number of lm-projection operators is LMMAX =           5

 POTCAR:    PAW_PBE C 08Apr2002                   
   VRHFIN =C: s2p2                                                              
   LEXCH  = PE                                                                  
   EATOM  =   147.1560 eV,   10.8157 Ry                                         
                                                                                
   TITEL  = PAW_PBE C 08Apr2002                                                 
   LULTRA =        F    use ultrasoft PP ?                                      
   IUNSCR =        1    unscreen: 0-lin 1-nonlin 2-no                           
   RPACOR =    1.200    partial core radius                                     
   POMASS =   12.011; ZVAL   =    4.000    mass and valenz                      
   RCORE  =    1.500    outmost cutoff radius                                   
   RWIGS  =    1.630; RWIGS  =    0.863    wigner-seitz radius (au A)           
   ENMAX  =  400.000; ENMIN  =  300.000 eV                                      
   ICORE  =        2    local potential                                         
   LCOR   =        T    correct aug charges                                     
   LPAW   =        T    paw PP                                                  
   EAUG   =  644.873                                                            
   DEXC   =    0.000                                                            
   RMAX   =    1.529    core radius for proj-oper                               
   RAUG   =    1.300    factor for augmentation sphere                          
   RDEP   =    1.501    radius for radial grids                                 
   RDEPT  =    1.300    core radius for aug-charge                              
                                                                                
   Atomic configuration                                                         
    4 entries                                                                   
     n  l   j            E        occ.                                          
     1  0  0.50      -273.3789   2.0000                                         
     2  0  0.50       -13.7508   2.0000                                         
     2  1  0.50        -5.2854   2.0000                                         
     3  2  1.50        -5.4423   0.0000                                         
   Description                                                                  
     l       E           TYP  RCUT    TYP  RCUT                                 
     0    -13.7508458     23  1.200                                             
     0     -8.2022199     23  1.200                                             
     1     -5.2854383     23  1.500                                             
     1     34.0145650     23  1.500                                             
     2     -5.4423304      7  1.500                                             
  local pseudopotential read in
  partial core-charges read in
  partial kinetic energy density read in
  atomic valenz-charges read in
  non local Contribution for L=           0  read in
    real space projection operators read in
  non local Contribution for L=           0  read in
    real space projection operators read in
  non local Contribution for L=           1  read in
    real space projection operators read in
  non local Contribution for L=           1  read in
    real space projection operators read in
    PAW grid and wavefunctions read in

   number of l-projection  operators is LMAX  =           4
   number of lm-projection operators is LMMAX =           8


 ----------------------------------------------------------------------------- 
|                                                                             |
|  ADVICE TO THIS USER RUNNING 'VASP/VAMP'   (HEAR YOUR MASTER'S VOICE ...):  |
|                                                                             |
|      You have a (more or less) 'small supercell' and for smaller cells      |
|      it is recommended  to use the reciprocal-space projection scheme!      |
|      The real space optimization is not  efficient for small cells and it   |
|      is also less accurate ...                                              |
|      Therefore set LREAL=.FALSE. in the  INCAR file                         |
|                                                                             |
 ----------------------------------------------------------------------------- 

 Optimization of the real space projectors (new method)

 maximal supplied QI-value         = 34.20
 optimisation between [QCUT,QGAM] = [  9.92, 20.18] = [ 27.55,114.04] Ry 
 Optimized for a Real-space Cutoff    1.34 Angstroem

   l    n(q)    QCUT    max X(q) W(low)/X(q) W(high)/X(q)  e(spline) 
   0      8     9.919    19.460    0.16E-03    0.20E-03    0.36E-06
   0      8     9.919    12.209    0.16E-03    0.20E-03    0.35E-06
   1      8     9.919     4.655    0.19E-03    0.46E-03    0.40E-06
 Optimization of the real space projectors (new method)

 maximal supplied QI-value         = 25.13
 optimisation between [QCUT,QGAM] = [ 10.05, 20.36] = [ 28.30,116.06] Ry 
 Optimized for a Real-space Cutoff    1.51 Angstroem

   l    n(q)    QCUT    max X(q) W(low)/X(q) W(high)/X(q)  e(spline) 
   0      9    10.053   115.676    0.19E-03    0.21E-03    0.38E-06
   0      9    10.053    87.132    0.19E-03    0.21E-03    0.38E-06
   1      9    10.053     4.429    0.87E-04    0.11E-03    0.39E-06
   1      9    10.053     2.733    0.59E-04    0.62E-04    0.43E-06
  PAW_PBE H 15Jun2001                   :
 energy of atom  1       EATOM=  -12.4884
 kinetic energy error for atom=    0.0098 (will be added to EATOM!!)
  PAW_PBE C 08Apr2002                   :
 energy of atom  2       EATOM= -147.1560
 kinetic energy error for atom=    0.0288 (will be added to EATOM!!)


 POSCAR: POSCAR file written by OVITO            
  positions in cartesian coordinates
  No initial velocities read in
 exchange correlation table for  LEXCH =        8
   RHO(1)=    0.500       N(1)  =     2000
   RHO(2)=  100.500       N(2)  =     4000



--------------------------------------------------------------------------------------------------------


 ion  position               nearest neighbor table
   1  0.517  0.394  0.370-   5 1.07
   2  0.403  0.497  0.459-   5 1.09
   3  0.543  0.562  0.414-   5 1.10
   4  0.542  0.434  0.540-   5 1.09
   5  0.504  0.466  0.445-   1 1.07   4 1.09   2 1.09   3 1.10


IMPORTANT INFORMATION: All symmetrisations will be switched off!
NOSYMM: (Re-)initialisation of all symmetry stuff for point group C_1.




Automatic generation of k-mesh.
 generate k-points for:    1    1    1
Space group operators:
 irot       det(A)        alpha          n_x          n_y          n_z        tau_x        tau_y        tau_z
    1     1.000000     0.000001     1.000000     0.000000     0.000000     0.000000     0.000000     0.000000
 
 Subroutine IBZKPT returns following result:
 ===========================================
 
 Found      1 irreducible k-points:
 
 Following reciprocal coordinates:
            Coordinates               Weight
  0.000000  0.000000  0.000000      1.000000
 
 Following cartesian coordinates:
            Coordinates               Weight
  0.000000  0.000000  0.000000      1.000000
 


--------------------------------------------------------------------------------------------------------




 Dimension of arrays:
   k-points           NKPTS =      1   k-points in BZ     NKDIM =      1   number of bands    NBANDS=      8
   number of dos      NEDOS =    301   number of ions     NIONS =      5
   non local maximal  LDIM  =      4   non local SUM 2l+1 LMDIM =      8
   total plane-waves  NPLWV = 343000
   max r-space proj   IRMAX =   4654   max aug-charges    IRDMAX=   3978
   dimension x,y,z NGX =    70 NGY =   70 NGZ =   70
   dimension x,y,z NGXF=   140 NGYF=  140 NGZF=  140
   support grid    NGXF=   140 NGYF=  140 NGZF=  140
   ions per type =               4   1
   NGX,Y,Z   is equivalent  to a cutoff of  11.29, 11.52, 11.30 a.u.
   NGXF,Y,Z  is equivalent  to a cutoff of  22.59, 23.05, 22.60 a.u.

 SYSTEM =  unknown system                          
 POSCAR =  POSCAR file written by OVITO            

 Startparameter for this run:
   NWRITE =      2    write-flag & timer
   PREC   = a         normal or accurate (medium, high low for compatibility)
   ISTART =      0    job   : 0-new  1-cont  2-samecut
   ICHARG =      2    charge: 1-file 2-atom 10-const
   ISPIN  =      1    spin polarized calculation?
   LNONCOLLINEAR =      F non collinear calculations
   LSORBIT =      F    spin-orbit coupling
   INIWAV =      1    electr: 0-lowe 1-rand  2-diag
   LASPH  =      F    aspherical Exc in radial PAW
   METAGGA=      F    non-selfconsistent MetaGGA calc.

 Electronic Relaxation 1
   ENCUT  =  400.0 eV  29.40 Ry    5.42 a.u.  16.80 16.47 16.80*2*pi/ulx,y,z
   ENINI  =  400.0     initial cutoff
   ENAUG  =  644.9 eV  augmentation charge cutoff
   NELM   =    120;   NELMIN=  4; NELMDL= -5     # of ELM steps 
   EDIFF  = 0.1E-05   stopping-criterion for ELM
   LREAL  =      T    real-space projection
   NLSPLINE    = F    spline interpolate recip. space projectors
   LCOMPAT=      F    compatible to vasp.4.4
   GGA_COMPAT  = T    GGA compatible to vasp.4.4-vasp.4.6
   LMAXPAW     = -100 max onsite density
   LMAXMIX     =    2 max onsite mixed and CHGCAR
   VOSKOWN=      0    Vosko Wilk Nusair interpolation
   ROPT   =   -0.00025  -0.00025
 Ionic relaxation
   EDIFFG = 0.1E-04   stopping-criterion for IOM
   NSW    =      0    number of steps for IOM
   NBLOCK =      1;   KBLOCK =      1    inner block; outer block 
   IBRION =     -1    ionic relax: 0-MD 1-quasi-New 2-CG
   NFREE  =      0    steps in history (QN), initial steepest desc. (CG)
   ISIF   =      2    stress and relaxation
   IWAVPR =     10    prediction:  0-non 1-charg 2-wave 3-comb
   ISYM   =      0    0-nonsym 1-usesym 2-fastsym
   LCORR  =      T    Harris-Foulkes like correction to forces

   POTIM  = 0.5000    time-step for ionic-motion
   TEIN   =    0.0    initial temperature
   TEBEG  =    0.0;   TEEND  =   0.0 temperature during run
   SMASS  =  -3.00    Nose mass-parameter (am)
   estimated Nose-frequenzy (Omega)   =  0.10E-29 period in steps =****** mass=  -0.243E-26a.u.
   SCALEE = 1.0000    scale energy and forces
   NPACO  =    256;   APACO  = 16.0  distance and # of slots for P.C.
   PSTRESS=    0.0 pullay stress

  Mass of Ions in am
   POMASS =   1.00 12.01
  Ionic Valenz
   ZVAL   =   1.00  4.00
  Atomic Wigner-Seitz radii
   RWIGS  =  -1.00 -1.00
  virtual crystal weights 
   VCA    =   1.00  1.00
   NELECT =       8.0000    total number of electrons
   NUPDOWN=      -1.0000    fix difference up-down

 DOS related values:
   EMIN   =  10.00;   EMAX   =-10.00  energy-range for DOS
   EFERMI =   0.00
   ISMEAR =     0;   SIGMA  =   0.05  broadening in eV -4-tet -1-fermi 0-gaus

 Electronic relaxation 2 (details)
   IALGO  =     38    algorithm
   LDIAG  =      T    sub-space diagonalisation (order eigenvalues)
   LSUBROT=      F    optimize rotation matrix (better conditioning)
   TURBO    =      0    0=normal 1=particle mesh
   IRESTART =      0    0=no restart 2=restart with 2 vectors
   NREBOOT  =      0    no. of reboots
   NMIN     =      0    reboot dimension
   EREF     =   0.00    reference energy to select bands
   IMIX   =      4    mixing-type and parameters
     AMIX     =   0.40;   BMIX     =  1.00
     AMIX_MAG =   1.60;   BMIX_MAG =  1.00
     AMIN     =   0.10
     WC   =   100.;   INIMIX=   1;  MIXPRE=   1;  MAXMIX= -45

 Intra band minimization:
   WEIMIN = 0.0000     energy-eigenvalue tresh-hold
   EBREAK =  0.31E-07  absolut break condition
   DEPER  =   0.30     relativ break condition  

   TIME   =   0.40     timestep for ELM

  volume/ion in A,a.u.               =     214.25      1445.83
  Fermi-wavevector in a.u.,A,eV,Ry     =   0.319993  0.604700  1.393178  0.102396
  Thomas-Fermi vector in A             =   1.206214

 Write flags
   LWAVE        =      F    write WAVECAR
   LDOWNSAMPLE  =      F    k-point downsampling of WAVECAR
   LCHARG       =      F    write CHGCAR
   LVTOT        =      F    write LOCPOT, total local potential
   LVHAR        =      F    write LOCPOT, Hartree potential only
   LELF         =      F    write electronic localiz. function (ELF)
   LORBIT       =      0    0 simple, 1 ext, 2 COOP (PROOUT), +10 PAW based schemes


 Dipole corrections
   LMONO  =      F    monopole corrections only (constant potential shift)
   LDIPOL =      F    correct potential (dipole corrections)
   IDIPOL =      0    1-x, 2-y, 3-z, 4-all directions 
   EPSILON=  1.0000000 bulk dielectric constant

 Exchange correlation treatment:
   GGA     =    --    GGA type
   LEXCH   =     8    internal setting for exchange type
   VOSKOWN=      0    Vosko Wilk Nusair interpolation
   LHFCALC =     F    Hartree Fock is set to
   LHFONE  =     F    Hartree Fock one center treatment
   AEXX    =    0.0000 exact exchange contribution

 Linear response parameters
   LEPSILON=     F    determine dielectric tensor
   LRPA    =     F    only Hartree local field effects (RPA)
   LNABLA  =     F    use nabla operator in PAW spheres
   LVEL    =     F    velocity operator in full k-point grid
   LINTERFAST=   F  fast interpolation
   KINTER  =     0    interpolate to denser k-point grid
   CSHIFT  =0.1000    complex shift for real part using Kramers Kronig
   OMEGAMAX=  -1.0    maximum frequency
   DEG_THRESHOLD= 0.2000000E-02 threshold for treating states as degnerate
   RTIME   =   -0.100 relaxation time in fs
  (WPLASMAI=    0.000 imaginary part of plasma frequency in eV, 0.658/RTIME)
   DFIELD  = 0.0000000 0.0000000 0.0000000 field for delta impulse in time

 Orbital magnetization related:
   ORBITALMAG=     F  switch on orbital magnetization
   LCHIMAG   =     F  perturbation theory with respect to B field
   DQ        =  0.001000  dq finite difference perturbation B field
   LLRAUG    =     F  two centre corrections for induced B field



--------------------------------------------------------------------------------------------------------


 Static calculation
 charge density and potential will be updated during run
 non-spin polarized calculation
 Variant of blocked Davidson
 Davidson routine will perform the subspace rotation
 perform sub-space diagonalisation
    after iterative eigenvector-optimisation
 modified Broyden-mixing scheme, WC =      100.0
 initial mixing is a Kerker type mixing with AMIX =  0.4000 and BMIX =      1.0000
 Hartree-type preconditioning will be used
 using additional bands            4
 real space projection scheme for non local part
 use partial core corrections
 calculate Harris-corrections to forces   (improved forces if not selfconsistent)
 use gradient corrections 
 use of overlap-Matrix (Vanderbilt PP)
 Gauss-broadening in eV      SIGMA  =   0.05


--------------------------------------------------------------------------------------------------------


  energy-cutoff  :      400.00
  volume of cell :     1071.25
      direct lattice vectors                 reciprocal lattice vectors
    10.304924000  0.000000000  0.000000000     0.097040987 -0.001819115  0.002591434
     0.189287600 10.097576100  0.000000000     0.000000000  0.099033668 -0.000735626
    -0.273492000  0.076472300 10.295088800     0.000000000  0.000000000  0.097133693

  length of vectors
    10.304924000 10.099350122 10.299004772     0.097092626  0.099036400  0.097133693



 k-points in units of 2pi/SCALE and weight: read from INCAR                         
   0.00000000  0.00000000  0.00000000       1.000

 k-points in reciprocal lattice and weights: read from INCAR                         
   0.00000000  0.00000000  0.00000000       1.000

 position of ions in fractional coordinates (direct lattice) 
   0.51715463  0.39407401  0.36996010
   0.40280292  0.49655311  0.45874614
   0.54327378  0.56179064  0.41413944
   0.54213023  0.43358242  0.53983721
   0.50374394  0.46596990  0.44496384

 position of ions in cartesian coordinates  (Angst):
   5.30265140  4.00748400  3.80877210
   4.11938140  5.04906420  4.72283220
   5.59147120  5.70439390  4.26360230
   5.52104140  4.41941410  5.55767200
   5.15755130  4.73919390  4.58094220



--------------------------------------------------------------------------------------------------------


 k-point  1 :   0.0000 0.0000 0.0000  plane waves:   19453

 maximum and minimum number of plane-waves per node :     19453    19453

 maximum number of plane-waves:     19453
 maximum index in each direction: 
   IXMAX=   16   IYMAX=   16   IZMAX=   16
   IXMIN=  -16   IYMIN=  -16   IZMIN=  -16


 serial   3D FFT for wavefunctions
 parallel 3D FFT for charge:
    minimum data exchange during FFTs selected (reduces bandwidth)


 total amount of memory used by VASP MPI-rank0   297494. kBytes
=======================================================================

   base      :      30000. kBytes
   nonlr-proj:       1256. kBytes
   fftplans  :      94700. kBytes
   grid      :     169030. kBytes
   one-center:         15. kBytes
   wavefun   :       2493. kBytes

     INWAV:  cpu time    0.0000: real time    0.0000
 Broyden mixing: mesh for mixing (old mesh)
   NGX = 33   NGY = 33   NGZ = 33
  (NGX  =140   NGY  =140   NGZ  =140)
  gives a total of  35937 points

 initial charge density was supplied:
 charge density of overlapping atoms calculated
 number of electron       8.0000000 magnetization 
 keeping initial charge density in first step


--------------------------------------------------------------------------------------------------------


 Maximum index for non-local projection operator         4460
 Maximum index for augmentation-charges         3665 (set IRDMAX)


--------------------------------------------------------------------------------------------------------


 First call to EWALD:  gamma=   0.173
 Maximum number of real-space cells 3x 3x 3
 Maximum number of reciprocal cells 3x 3x 3

    FEWALD:  cpu time    0.0007: real time    0.0007


--------------------------------------- Iteration      1(   1)  ---------------------------------------


    POTLOK:  cpu time    1.7192: real time    1.7234
    SETDIJ:  cpu time    0.0061: real time    0.0061
     EDDAV:  cpu time    0.4772: real time    0.4783
       DOS:  cpu time    0.0001: real time    0.0001
    --------------------------------------------
      LOOP:  cpu time    2.2027: real time    2.2080

 eigenvalue-minimisations  :    16
 total energy-change (2. order) : 0.6779090E+02  (-0.1707761E+03)
 number of electron       8.0000000 magnetization 
 augmentation part        8.0000000 magnetization 

 Free energy of the ion-electron system (eV)
  ---------------------------------------------------
  alpha Z        PSCENC =         0.22613781
  Ewald energy   TEWEN  =       133.30415553
  -Hartree energ DENC   =      -247.62726514
  -exchange      EXHF   =         0.00000000
  -V(xc)+E(xc)   XCENC  =        22.05079366
  PAW double counting   =       117.05815612     -117.66307307
  entropy T*S    EENTRO =        -0.00000000
  eigenvalues    EBANDS =       -36.59975865
  atomic energy  EATOM  =       197.04175453
  Solvation  Ediel_sol  =         0.00000000
  ---------------------------------------------------
  free energy    TOTEN  =        67.79090080 eV

  energy without entropy =       67.79090080  energy(sigma->0) =       67.79090080


--------------------------------------------------------------------------------------------------------




--------------------------------------- Iteration      1(   2)  ---------------------------------------


     EDDAV:  cpu time    0.6762: real time    0.6779
       DOS:  cpu time    0.0001: real time    0.0001
    --------------------------------------------
      LOOP:  cpu time    0.6763: real time    0.6780

 eigenvalue-minimisations  :    24
 total energy-change (2. order) :-0.6622328E+02  (-0.6622328E+02)
 number of electron       8.0000000 magnetization 
 augmentation part        8.0000000 magnetization 

 Free energy of the ion-electron system (eV)
  ---------------------------------------------------
  alpha Z        PSCENC =         0.22613781
  Ewald energy   TEWEN  =       133.30415553
  -Hartree energ DENC   =      -247.62726514
  -exchange      EXHF   =         0.00000000
  -V(xc)+E(xc)   XCENC  =        22.05079366
  PAW double counting   =       117.05815612     -117.66307307
  entropy T*S    EENTRO =        -0.00000000
  eigenvalues    EBANDS =      -102.82304225
  atomic energy  EATOM  =       197.04175453
  Solvation  Ediel_sol  =         0.00000000
  ---------------------------------------------------
  free energy    TOTEN  =         1.56761720 eV

  energy without entropy =        1.56761720  energy(sigma->0) =        1.56761720


--------------------------------------------------------------------------------------------------------




--------------------------------------- Iteration      1(   3)  ---------------------------------------


     EDDAV:  cpu time    0.4998: real time    0.5010
       DOS:  cpu time    0.0001: real time    0.0001
    --------------------------------------------
      LOOP:  cpu time    0.4999: real time    0.5011

 eigenvalue-minimisations  :    16
 total energy-change (2. order) :-0.2655788E+02  (-0.2655788E+02)
 number of electron       8.0000000 magnetization 
 augmentation part        8.0000000 magnetization 

 Free energy of the ion-electron system (eV)
  ---------------------------------------------------
  alpha Z        PSCENC =         0.22613781
  Ewald energy   TEWEN  =       133.30415553
  -Hartree energ DENC   =      -247.62726514
  -exchange      EXHF   =         0.00000000
  -V(xc)+E(xc)   XCENC  =        22.05079366
  PAW double counting   =       117.05815612     -117.66307307
  entropy T*S    EENTRO =        -0.00000000
  eigenvalues    EBANDS =      -129.38091959
  atomic energy  EATOM  =       197.04175453
  Solvation  Ediel_sol  =         0.00000000
  ---------------------------------------------------
  free energy    TOTEN  =       -24.99026014 eV

  energy without entropy =      -24.99026014  energy(sigma->0) =      -24.99026014


--------------------------------------------------------------------------------------------------------




--------------------------------------- Iteration      1(   4)  ---------------------------------------


     EDDAV:  cpu time    0.4945: real time    0.4956
       DOS:  cpu time    0.0001: real time    0.0001
    --------------------------------------------
      LOOP:  cpu time    0.4946: real time    0.4957

 eigenvalue-minimisations  :    16
 total energy-change (2. order) :-0.2486791E+01  (-0.2486791E+01)
 number of electron       8.0000000 magnetization 
 augmentation part        8.0000000 magnetization 

 Free energy of the ion-electron system (eV)
  ---------------------------------------------------
  alpha Z        PSCENC =         0.22613781
  Ewald energy   TEWEN  =       133.30415553
  -Hartree energ DENC   =      -247.62726514
  -exchange      EXHF   =         0.00000000
  -V(xc)+E(xc)   XCENC  =        22.05079366
  PAW double counting   =       117.05815612     -117.66307307
  entropy T*S    EENTRO =        -0.00000000
  eigenvalues    EBANDS =      -131.86771106
  atomic energy  EATOM  =       197.04175453
  Solvation  Ediel_sol  =         0.00000000
  ---------------------------------------------------
  free energy    TOTEN  =       -27.47705161 eV

  energy without entropy =      -27.47705161  energy(sigma->0) =      -27.47705161


--------------------------------------------------------------------------------------------------------




--------------------------------------- Iteration      1(   5)  ---------------------------------------


     EDDAV:  cpu time    0.8768: real time    0.8789
       DOS:  cpu time    0.0001: real time    0.0001
    CHARGE:  cpu time    0.1009: real time    0.1011
    MIXING:  cpu time    0.0358: real time    0.0359
    --------------------------------------------
      LOOP:  cpu time    1.0137: real time    1.0161

 eigenvalue-minimisations  :    32
 total energy-change (2. order) :-0.8718062E-01  (-0.8718062E-01)
 number of electron       7.9999999 magnetization 
 augmentation part        0.2277346 magnetization 

 Broyden mixing:
  rms(total) = 0.88337E+00    rms(broyden)= 0.88313E+00
  rms(prec ) = 0.12401E+01
  weight for this iteration     100.00

 Free energy of the ion-electron system (eV)
  ---------------------------------------------------
  alpha Z        PSCENC =         0.22613781
  Ewald energy   TEWEN  =       133.30415553
  -Hartree energ DENC   =      -247.62726514
  -exchange      EXHF   =         0.00000000
  -V(xc)+E(xc)   XCENC  =        22.05079366
  PAW double counting   =       117.05815612     -117.66307307
  entropy T*S    EENTRO =        -0.00000000
  eigenvalues    EBANDS =      -131.95489168
  atomic energy  EATOM  =       197.04175453
  Solvation  Ediel_sol  =         0.00000000
  ---------------------------------------------------
  free energy    TOTEN  =       -27.56423223 eV

  energy without entropy =      -27.56423223  energy(sigma->0) =      -27.56423223


--------------------------------------------------------------------------------------------------------




--------------------------------------- Iteration      1(   6)  ---------------------------------------


    POTLOK:  cpu time    1.8267: real time    1.8310
    SETDIJ:  cpu time    0.0063: real time    0.0063
     EDDAV:  cpu time    0.5166: real time    0.5179
       DOS:  cpu time    0.0001: real time    0.0001
    CHARGE:  cpu time    0.1031: real time    0.1034
    MIXING:  cpu time    0.0368: real time    0.0369
    --------------------------------------------
      LOOP:  cpu time    2.4896: real time    2.4955

 eigenvalue-minimisations  :    16
 total energy-change (2. order) : 0.2971252E+01  (-0.8899662E+00)
 number of electron       7.9999999 magnetization 
 augmentation part        0.1988308 magnetization 

 Broyden mixing:
  rms(total) = 0.43441E+00    rms(broyden)= 0.43430E+00
  rms(prec ) = 0.54891E+00
  weight for this iteration     100.00

 eigenvalues of (default mixing * dielectric matrix)
  average eigenvalue GAMMA=   1.2355
  1.2355

 Free energy of the ion-electron system (eV)
  ---------------------------------------------------
  alpha Z        PSCENC =         0.22613781
  Ewald energy   TEWEN  =       133.30415553
  -Hartree energ DENC   =      -267.61670322
  -exchange      EXHF   =         0.00000000
  -V(xc)+E(xc)   XCENC  =        23.26319077
  PAW double counting   =       240.77449714     -241.55799702
  entropy T*S    EENTRO =        -0.00000000
  eigenvalues    EBANDS =      -110.02801568
  atomic energy  EATOM  =       197.04175453
  Solvation  Ediel_sol  =         0.00000000
  ---------------------------------------------------
  free energy    TOTEN  =       -24.59298014 eV

  energy without entropy =      -24.59298014  energy(sigma->0) =      -24.59298014


--------------------------------------------------------------------------------------------------------




--------------------------------------- Iteration      1(   7)  ---------------------------------------


    POTLOK:  cpu time    1.8316: real time    1.8359
    SETDIJ:  cpu time    0.0063: real time    0.0063
     EDDAV:  cpu time    0.7573: real time    0.7591
       DOS:  cpu time    0.0001: real time    0.0001
    CHARGE:  cpu time    0.1136: real time    0.1139
    MIXING:  cpu time    0.0399: real time    0.0400
    --------------------------------------------
      LOOP:  cpu time    2.7488: real time    2.7553

 eigenvalue-minimisations  :    24
 total energy-change (2. order) : 0.4887422E+00  (-0.8930144E-01)
 number of electron       7.9999999 magnetization 
 augmentation part        0.1905813 magnetization 

 Broyden mixing:
  rms(total) = 0.23746E+00    rms(broyden)= 0.23741E+00
  rms(prec ) = 0.28653E+00
  weight for this iteration     100.00

 eigenvalues of (default mixing * dielectric matrix)
  average eigenvalue GAMMA=   1.8485
  1.2899  2.4071

 Free energy of the ion-electron system (eV)
  ---------------------------------------------------
  alpha Z        PSCENC =         0.22613781
  Ewald energy   TEWEN  =       133.30415553
  -Hartree energ DENC   =      -278.09415095
  -exchange      EXHF   =         0.00000000
  -V(xc)+E(xc)   XCENC  =        24.04382787
  PAW double counting   =       366.22098801     -367.03765961
  entropy T*S    EENTRO =        -0.00000000
  eigenvalues    EBANDS =       -99.80929112
  atomic energy  EATOM  =       197.04175453
  Solvation  Ediel_sol  =         0.00000000
  ---------------------------------------------------
  free energy    TOTEN  =       -24.10423792 eV

  energy without entropy =      -24.10423792  energy(sigma->0) =      -24.10423792


--------------------------------------------------------------------------------------------------------




--------------------------------------- Iteration      1(   8)  ---------------------------------------


    POTLOK:  cpu time    1.9164: real time    1.9209
    SETDIJ:  cpu time    0.0068: real time    0.0068
     EDDAV:  cpu time    0.7920: real time    0.7939
       DOS:  cpu time    0.0001: real time    0.0001
    CHARGE:  cpu time    0.1106: real time    0.1109
    MIXING:  cpu time    0.0415: real time    0.0416
    --------------------------------------------
      LOOP:  cpu time    2.8674: real time    2.8742

 eigenvalue-minimisations  :    24
 total energy-change (2. order) : 0.1678714E+00  (-0.2076496E-01)
 number of electron       7.9999999 magnetization 
 augmentation part        0.1880734 magnetization 

 Broyden mixing:
  rms(total) = 0.40773E-01    rms(broyden)= 0.40749E-01
  rms(prec ) = 0.61105E-01
  weight for this iteration     100.00

 eigenvalues of (default mixing * dielectric matrix)
  average eigenvalue GAMMA=   1.3730
  2.3158  1.2907  0.5126

 Free energy of the ion-electron system (eV)
  ---------------------------------------------------
  alpha Z        PSCENC =         0.22613781
  Ewald energy   TEWEN  =       133.30415553
  -Hartree energ DENC   =      -285.54744528
  -exchange      EXHF   =         0.00000000
  -V(xc)+E(xc)   XCENC  =        24.71987963
  PAW double counting   =       502.15229917     -502.94817760
  entropy T*S    EENTRO =        -0.00000000
  eigenvalues    EBANDS =       -92.88497035
  atomic energy  EATOM  =       197.04175453
  Solvation  Ediel_sol  =         0.00000000
  ---------------------------------------------------
  free energy    TOTEN  =       -23.93636657 eV

  energy without entropy =      -23.93636657  energy(sigma->0) =      -23.93636657


--------------------------------------------------------------------------------------------------------




--------------------------------------- Iteration      1(   9)  ---------------------------------------


    POTLOK:  cpu time    1.9584: real time    1.9631
    SETDIJ:  cpu time    0.0070: real time    0.0070
     EDDAV:  cpu time    1.0678: real time    1.0703
       DOS:  cpu time    0.0001: real time    0.0001
    CHARGE:  cpu time    0.1160: real time    0.1163
    MIXING:  cpu time    0.0471: real time    0.0472
    --------------------------------------------
      LOOP:  cpu time    3.1964: real time    3.2040

 eigenvalue-minimisations  :    32
 total energy-change (2. order) : 0.8052115E-03  (-0.2494954E-03)
 number of electron       7.9999999 magnetization 
 augmentation part        0.1877759 magnetization 

 Broyden mixing:
  rms(total) = 0.23258E-01    rms(broyden)= 0.23257E-01
  rms(prec ) = 0.45231E-01
  weight for this iteration     100.00

 eigenvalues of (default mixing * dielectric matrix)
  average eigenvalue GAMMA=   1.7764
  2.3996  2.3996  1.1531  1.1531

 Free energy of the ion-electron system (eV)
  ---------------------------------------------------
  alpha Z        PSCENC =         0.22613781
  Ewald energy   TEWEN  =       133.30415553
  -Hartree energ DENC   =      -285.79702280
  -exchange      EXHF   =         0.00000000
  -V(xc)+E(xc)   XCENC  =        24.71083680
  PAW double counting   =       490.36036582     -491.15763396
  entropy T*S    EENTRO =        -0.00000000
  eigenvalues    EBANDS =       -92.62415508
  atomic energy  EATOM  =       197.04175453
  Solvation  Ediel_sol  =         0.00000000
  ---------------------------------------------------
  free energy    TOTEN  =       -23.93556135 eV

  energy without entropy =      -23.93556135  energy(sigma->0) =      -23.93556135


--------------------------------------------------------------------------------------------------------




--------------------------------------- Iteration      1(  10)  ---------------------------------------


    POTLOK:  cpu time    2.0469: real time    2.0518
    SETDIJ:  cpu time    0.0069: real time    0.0069
     EDDAV:  cpu time    0.6498: real time    0.6514
       DOS:  cpu time    0.0001: real time    0.0001
    CHARGE:  cpu time    0.1353: real time    0.1356
    MIXING:  cpu time    0.0477: real time    0.0478
    --------------------------------------------
      LOOP:  cpu time    2.8867: real time    2.8936

 eigenvalue-minimisations  :    16
 total energy-change (2. order) : 0.1079995E-01  (-0.7879299E-03)
 number of electron       7.9999999 magnetization 
 augmentation part        0.1874729 magnetization 

 Broyden mixing:
  rms(total) = 0.94401E-02    rms(broyden)= 0.94394E-02
  rms(prec ) = 0.17960E-01
  weight for this iteration     100.00

 eigenvalues of (default mixing * dielectric matrix)
  average eigenvalue GAMMA=   1.7896
  3.3404  2.3969  1.2533  0.9787  0.9787

 Free energy of the ion-electron system (eV)
  ---------------------------------------------------
  alpha Z        PSCENC =         0.22613781
  Ewald energy   TEWEN  =       133.30415553
  -Hartree energ DENC   =      -287.86904172
  -exchange      EXHF   =         0.00000000
  -V(xc)+E(xc)   XCENC  =        24.79789175
  PAW double counting   =       472.97375996     -473.76576147
  entropy T*S    EENTRO =        -0.00000000
  eigenvalues    EBANDS =       -90.63365780
  atomic energy  EATOM  =       197.04175453
  Solvation  Ediel_sol  =         0.00000000
  ---------------------------------------------------
  free energy    TOTEN  =       -23.92476141 eV

  energy without entropy =      -23.92476141  energy(sigma->0) =      -23.92476141


--------------------------------------------------------------------------------------------------------




--------------------------------------- Iteration      1(  11)  ---------------------------------------


    POTLOK:  cpu time    1.9836: real time    1.9883
    SETDIJ:  cpu time    0.0073: real time    0.0073
     EDDAV:  cpu time    1.2864: real time    1.2895
       DOS:  cpu time    0.0001: real time    0.0001
    CHARGE:  cpu time    0.1533: real time    0.1536
    MIXING:  cpu time    0.0515: real time    0.0517
    --------------------------------------------
      LOOP:  cpu time    3.4822: real time    3.4905

 eigenvalue-minimisations  :    32
 total energy-change (2. order) :-0.1600396E-02  (-0.1366676E-03)
 number of electron       7.9999999 magnetization 
 augmentation part        0.1871009 magnetization 

 Broyden mixing:
  rms(total) = 0.84113E-02    rms(broyden)= 0.84106E-02
  rms(prec ) = 0.14171E-01
  weight for this iteration     100.00

 eigenvalues of (default mixing * dielectric matrix)
  average eigenvalue GAMMA=   2.1062
  3.9366  3.1843  2.2686  1.2624  0.9926  0.9926

 Free energy of the ion-electron system (eV)
  ---------------------------------------------------
  alpha Z        PSCENC =         0.22613781
  Ewald energy   TEWEN  =       133.30415553
  -Hartree energ DENC   =      -288.46368016
  -exchange      EXHF   =         0.00000000
  -V(xc)+E(xc)   XCENC  =        24.82385345
  PAW double counting   =       474.11136701     -474.90455850
  entropy T*S    EENTRO =        -0.00000000
  eigenvalues    EBANDS =       -90.06539147
  atomic energy  EATOM  =       197.04175453
  Solvation  Ediel_sol  =         0.00000000
  ---------------------------------------------------
  free energy    TOTEN  =       -23.92636181 eV

  energy without entropy =      -23.92636181  energy(sigma->0) =      -23.92636181


--------------------------------------------------------------------------------------------------------




--------------------------------------- Iteration      1(  12)  ---------------------------------------


    POTLOK:  cpu time    1.9529: real time    1.9576
    SETDIJ:  cpu time    0.0073: real time    0.0074
     EDDAV:  cpu time    1.3400: real time    1.3432
       DOS:  cpu time    0.0001: real time    0.0001
    CHARGE:  cpu time    0.1661: real time    0.1665
    MIXING:  cpu time    0.0589: real time    0.0591
    --------------------------------------------
      LOOP:  cpu time    3.5255: real time    3.5339

 eigenvalue-minimisations  :    32
 total energy-change (2. order) :-0.9807248E-02  (-0.2862381E-03)
 number of electron       7.9999999 magnetization 
 augmentation part        0.1871968 magnetization 

 Broyden mixing:
  rms(total) = 0.42533E-02    rms(broyden)= 0.42523E-02
  rms(prec ) = 0.63569E-02
  weight for this iteration     100.00

 eigenvalues of (default mixing * dielectric matrix)
  average eigenvalue GAMMA=   1.9871
  4.5105  2.9782  2.2898  1.2460  1.0047  1.0047  0.8760

 Free energy of the ion-electron system (eV)
  ---------------------------------------------------
  alpha Z        PSCENC =         0.22613781
  Ewald energy   TEWEN  =       133.30415553
  -Hartree energ DENC   =      -288.63637557
  -exchange      EXHF   =         0.00000000
  -V(xc)+E(xc)   XCENC  =        24.81581461
  PAW double counting   =       477.96316445     -478.75635859
  entropy T*S    EENTRO =        -0.00000000
  eigenvalues    EBANDS =       -89.89446183
  atomic energy  EATOM  =       197.04175453
  Solvation  Ediel_sol  =         0.00000000
  ---------------------------------------------------
  free energy    TOTEN  =       -23.93616905 eV

  energy without entropy =      -23.93616905  energy(sigma->0) =      -23.93616905


--------------------------------------------------------------------------------------------------------




--------------------------------------- Iteration      1(  13)  ---------------------------------------


    POTLOK:  cpu time    2.0376: real time    2.0424
    SETDIJ:  cpu time    0.0074: real time    0.0074
     EDDAV:  cpu time    1.3317: real time    1.3349
       DOS:  cpu time    0.0001: real time    0.0001
    CHARGE:  cpu time    0.1527: real time    0.1531
    MIXING:  cpu time    0.0522: real time    0.0524
    --------------------------------------------
      LOOP:  cpu time    3.5817: real time    3.5902

 eigenvalue-minimisations  :    32
 total energy-change (2. order) :-0.1306953E-02  (-0.1360712E-04)
 number of electron       7.9999999 magnetization 
 augmentation part        0.1871221 magnetization 

 Broyden mixing:
  rms(total) = 0.23436E-02    rms(broyden)= 0.23435E-02
  rms(prec ) = 0.42571E-02
  weight for this iteration     100.00

 eigenvalues of (default mixing * dielectric matrix)
  average eigenvalue GAMMA=   2.2786
  5.7325  3.7436  2.3156  2.0736  1.2131  1.2131  0.9685  0.9685

 Free energy of the ion-electron system (eV)
  ---------------------------------------------------
  alpha Z        PSCENC =         0.22613781
  Ewald energy   TEWEN  =       133.30415553
  -Hartree energ DENC   =      -288.70644655
  -exchange      EXHF   =         0.00000000
  -V(xc)+E(xc)   XCENC  =        24.81720984
  PAW double counting   =       477.58908062     -478.38232188
  entropy T*S    EENTRO =        -0.00000000
  eigenvalues    EBANDS =       -89.82704591
  atomic energy  EATOM  =       197.04175453
  Solvation  Ediel_sol  =         0.00000000
  ---------------------------------------------------
  free energy    TOTEN  =       -23.93747601 eV

  energy without entropy =      -23.93747601  energy(sigma->0) =      -23.93747601


--------------------------------------------------------------------------------------------------------




--------------------------------------- Iteration      1(  14)  ---------------------------------------


    POTLOK:  cpu time    1.9636: real time    1.9684
    SETDIJ:  cpu time    0.0074: real time    0.0074
     EDDAV:  cpu time    0.6460: real time    0.6475
       DOS:  cpu time    0.0001: real time    0.0001
    CHARGE:  cpu time    0.1508: real time    0.1511
    MIXING:  cpu time    0.0592: real time    0.0594
    --------------------------------------------
      LOOP:  cpu time    2.8271: real time    2.8340

 eigenvalue-minimisations  :    16
 total energy-change (2. order) :-0.2758684E-02  (-0.5347519E-04)
 number of electron       7.9999999 magnetization 
 augmentation part        0.1871185 magnetization 

 Broyden mixing:
  rms(total) = 0.74052E-03    rms(broyden)= 0.74041E-03
  rms(prec ) = 0.16624E-02
  weight for this iteration     100.00

 eigenvalues of (default mixing * dielectric matrix)
  average eigenvalue GAMMA=   2.2579
  6.1008  3.9086  2.5517  2.2164  1.2283  1.0222  1.0222  1.1357  1.1357

 Free energy of the ion-electron system (eV)
  ---------------------------------------------------
  alpha Z        PSCENC =         0.22613781
  Ewald energy   TEWEN  =       133.30415553
  -Hartree energ DENC   =      -288.69216024
  -exchange      EXHF   =         0.00000000
  -V(xc)+E(xc)   XCENC  =        24.81044378
  PAW double counting   =       476.88951799     -477.68245841
  entropy T*S    EENTRO =        -0.00000000
  eigenvalues    EBANDS =       -89.83762567
  atomic energy  EATOM  =       197.04175453
  Solvation  Ediel_sol  =         0.00000000
  ---------------------------------------------------
  free energy    TOTEN  =       -23.94023469 eV

  energy without entropy =      -23.94023469  energy(sigma->0) =      -23.94023469


--------------------------------------------------------------------------------------------------------




--------------------------------------- Iteration      1(  15)  ---------------------------------------


    POTLOK:  cpu time    2.0293: real time    2.0341
    SETDIJ:  cpu time    0.0073: real time    0.0074
     EDDAV:  cpu time    1.1846: real time    1.1874
       DOS:  cpu time    0.0001: real time    0.0001
    CHARGE:  cpu time    0.1534: real time    0.1538
    MIXING:  cpu time    0.0604: real time    0.0605
    --------------------------------------------
      LOOP:  cpu time    3.4352: real time    3.4434

 eigenvalue-minimisations  :    32
 total energy-change (2. order) :-0.5282680E-03  (-0.4765568E-05)
 number of electron       7.9999999 magnetization 
 augmentation part        0.1870905 magnetization 

 Broyden mixing:
  rms(total) = 0.64666E-03    rms(broyden)= 0.64661E-03
  rms(prec ) = 0.10419E-02
  weight for this iteration     100.00

 eigenvalues of (default mixing * dielectric matrix)
  average eigenvalue GAMMA=   2.4138
  7.2165  4.3857  2.7863  2.4536  1.9253  1.2606  1.1983  0.9818  0.9818  0.9479

 Free energy of the ion-electron system (eV)
  ---------------------------------------------------
  alpha Z        PSCENC =         0.22613781
  Ewald energy   TEWEN  =       133.30415553
  -Hartree energ DENC   =      -288.72426184
  -exchange      EXHF   =         0.00000000
  -V(xc)+E(xc)   XCENC  =        24.81193666
  PAW double counting   =       476.72448846     -477.51737065
  entropy T*S    EENTRO =        -0.00000000
  eigenvalues    EBANDS =       -89.80760346
  atomic energy  EATOM  =       197.04175453
  Solvation  Ediel_sol  =         0.00000000
  ---------------------------------------------------
  free energy    TOTEN  =       -23.94076296 eV

  energy without entropy =      -23.94076296  energy(sigma->0) =      -23.94076296


--------------------------------------------------------------------------------------------------------




--------------------------------------- Iteration      1(  16)  ---------------------------------------


    POTLOK:  cpu time    1.9946: real time    1.9993
    SETDIJ:  cpu time    0.0074: real time    0.0075
     EDDAV:  cpu time    0.6533: real time    0.6549
       DOS:  cpu time    0.0001: real time    0.0001
    CHARGE:  cpu time    0.1340: real time    0.1343
    MIXING:  cpu time    0.0517: real time    0.0518
    --------------------------------------------
      LOOP:  cpu time    2.8410: real time    2.8477

 eigenvalue-minimisations  :    16
 total energy-change (2. order) :-0.2197791E-03  (-0.1552149E-05)
 number of electron       7.9999999 magnetization 
 augmentation part        0.1871043 magnetization 

 Broyden mixing:
  rms(total) = 0.40598E-03    rms(broyden)= 0.40597E-03
  rms(prec ) = 0.53766E-03
  weight for this iteration     100.00

 eigenvalues of (default mixing * dielectric matrix)
  average eigenvalue GAMMA=   2.4931
  7.8322  4.7001  3.3925  2.2618  1.9486  1.9486  1.2707  1.0848  1.0848  0.9500
  0.9500

 Free energy of the ion-electron system (eV)
  ---------------------------------------------------
  alpha Z        PSCENC =         0.22613781
  Ewald energy   TEWEN  =       133.30415553
  -Hartree energ DENC   =      -288.70230184
  -exchange      EXHF   =         0.00000000
  -V(xc)+E(xc)   XCENC  =        24.80991580
  PAW double counting   =       476.47433623     -477.26724159
  entropy T*S    EENTRO =        -0.00000000
  eigenvalues    EBANDS =       -89.82773920
  atomic energy  EATOM  =       197.04175453
  Solvation  Ediel_sol  =         0.00000000
  ---------------------------------------------------
  free energy    TOTEN  =       -23.94098274 eV

  energy without entropy =      -23.94098274  energy(sigma->0) =      -23.94098274


--------------------------------------------------------------------------------------------------------




--------------------------------------- Iteration      1(  17)  ---------------------------------------


    POTLOK:  cpu time    1.9848: real time    1.9895
    SETDIJ:  cpu time    0.0076: real time    0.0076
     EDDAV:  cpu time    0.7053: real time    0.7070
       DOS:  cpu time    0.0001: real time    0.0001
    CHARGE:  cpu time    0.1409: real time    0.1412
    MIXING:  cpu time    0.0652: real time    0.0653
    --------------------------------------------
      LOOP:  cpu time    2.9039: real time    2.9108

 eigenvalue-minimisations  :    16
 total energy-change (2. order) :-0.7067871E-04  (-0.2743898E-06)
 number of electron       7.9999999 magnetization 
 augmentation part        0.1870981 magnetization 

 Broyden mixing:
  rms(total) = 0.13606E-03    rms(broyden)= 0.13605E-03
  rms(prec ) = 0.21674E-03
  weight for this iteration     100.00

 eigenvalues of (default mixing * dielectric matrix)
  average eigenvalue GAMMA=   2.5668
  8.6173  5.1740  3.6833  2.7284  2.3203  1.7753  1.3440  1.2472  1.0101  1.0101
  0.9456  0.9456

 Free energy of the ion-electron system (eV)
  ---------------------------------------------------
  alpha Z        PSCENC =         0.22613781
  Ewald energy   TEWEN  =       133.30415553
  -Hartree energ DENC   =      -288.71972332
  -exchange      EXHF   =         0.00000000
  -V(xc)+E(xc)   XCENC  =        24.81098758
  PAW double counting   =       476.70416125     -477.49712003
  entropy T*S    EENTRO =        -0.00000000
  eigenvalues    EBANDS =       -89.81140676
  atomic energy  EATOM  =       197.04175453
  Solvation  Ediel_sol  =         0.00000000
  ---------------------------------------------------
  free energy    TOTEN  =       -23.94105342 eV

  energy without entropy =      -23.94105342  energy(sigma->0) =      -23.94105342


--------------------------------------------------------------------------------------------------------




--------------------------------------- Iteration      1(  18)  ---------------------------------------


    POTLOK:  cpu time    2.0431: real time    2.0480
    SETDIJ:  cpu time    0.0074: real time    0.0075
     EDDAV:  cpu time    1.3229: real time    1.3260
       DOS:  cpu time    0.0001: real time    0.0001
    CHARGE:  cpu time    0.1444: real time    0.1448
    MIXING:  cpu time    0.0595: real time    0.0596
    --------------------------------------------
      LOOP:  cpu time    3.5774: real time    3.5859

 eigenvalue-minimisations  :    32
 total energy-change (2. order) :-0.1804030E-04  (-0.7924476E-07)
 number of electron       7.9999999 magnetization 
 augmentation part        0.1871031 magnetization 

 Broyden mixing:
  rms(total) = 0.73550E-04    rms(broyden)= 0.73544E-04
  rms(prec ) = 0.94663E-04
  weight for this iteration     100.00

 eigenvalues of (default mixing * dielectric matrix)
  average eigenvalue GAMMA=   2.5637
  8.6789  5.3597  3.7333  2.6126  2.2554  2.1866  2.1866  1.2521  1.1464  1.0091
  0.9800  0.9800  0.9472

 Free energy of the ion-electron system (eV)
  ---------------------------------------------------
  alpha Z        PSCENC =         0.22613781
  Ewald energy   TEWEN  =       133.30415553
  -Hartree energ DENC   =      -288.71287862
  -exchange      EXHF   =         0.00000000
  -V(xc)+E(xc)   XCENC  =        24.81046574
  PAW double counting   =       476.71637279     -477.50934444
  entropy T*S    EENTRO =        -0.00000000
  eigenvalues    EBANDS =       -89.81773481
  atomic energy  EATOM  =       197.04175453
  Solvation  Ediel_sol  =         0.00000000
  ---------------------------------------------------
  free energy    TOTEN  =       -23.94107146 eV

  energy without entropy =      -23.94107146  energy(sigma->0) =      -23.94107146


--------------------------------------------------------------------------------------------------------




--------------------------------------- Iteration      1(  19)  ---------------------------------------


    POTLOK:  cpu time    2.0947: real time    2.0997
    SETDIJ:  cpu time    0.0073: real time    0.0073
     EDDAV:  cpu time    0.7454: real time    0.7471
       DOS:  cpu time    0.0001: real time    0.0001
    CHARGE:  cpu time    0.1548: real time    0.1552
    MIXING:  cpu time    0.0656: real time    0.0657
    --------------------------------------------
      LOOP:  cpu time    3.0679: real time    3.0751

 eigenvalue-minimisations  :    16
 total energy-change (2. order) :-0.5820820E-05  (-0.1909940E-07)
 number of electron       7.9999999 magnetization 
 augmentation part        0.1871049 magnetization 

 Broyden mixing:
  rms(total) = 0.49974E-04    rms(broyden)= 0.49964E-04
  rms(prec ) = 0.68161E-04
  weight for this iteration     100.00

 eigenvalues of (default mixing * dielectric matrix)
  average eigenvalue GAMMA=   2.5281
  8.8033  5.5187  4.0357  3.0748  2.5150  2.2830  1.8410  1.2555  1.2555  1.0091
  0.9884  0.9884  0.9127  0.9127

 Free energy of the ion-electron system (eV)
  ---------------------------------------------------
  alpha Z        PSCENC =         0.22613781
  Ewald energy   TEWEN  =       133.30415553
  -Hartree energ DENC   =      -288.71228011
  -exchange      EXHF   =         0.00000000
  -V(xc)+E(xc)   XCENC  =        24.81042132
  PAW double counting   =       476.69781094     -477.49075315
  entropy T*S    EENTRO =        -0.00000000
  eigenvalues    EBANDS =       -89.81832415
  atomic energy  EATOM  =       197.04175453
  Solvation  Ediel_sol  =         0.00000000
  ---------------------------------------------------
  free energy    TOTEN  =       -23.94107728 eV

  energy without entropy =      -23.94107728  energy(sigma->0) =      -23.94107728


--------------------------------------------------------------------------------------------------------




--------------------------------------- Iteration      1(  20)  ---------------------------------------


    POTLOK:  cpu time    2.1086: real time    2.1136
    SETDIJ:  cpu time    0.0074: real time    0.0074
     EDDAV:  cpu time    1.3251: real time    1.3283
       DOS:  cpu time    0.0001: real time    0.0001
    --------------------------------------------
      LOOP:  cpu time    3.4412: real time    3.4493

 eigenvalue-minimisations  :    32
 total energy-change (2. order) :-0.8917320E-06  (-0.4536073E-08)
 number of electron       7.9999999 magnetization 
 augmentation part        0.1871049 magnetization 

 Free energy of the ion-electron system (eV)
  ---------------------------------------------------
  alpha Z        PSCENC =         0.22613781
  Ewald energy   TEWEN  =       133.30415553
  -Hartree energ DENC   =      -288.71325552
  -exchange      EXHF   =         0.00000000
  -V(xc)+E(xc)   XCENC  =        24.81045221
  PAW double counting   =       476.69818965     -477.49114201
  entropy T*S    EENTRO =        -0.00000000
  eigenvalues    EBANDS =       -89.81737037
  atomic energy  EATOM  =       197.04175453
  Solvation  Ediel_sol  =         0.00000000
  ---------------------------------------------------
  free energy    TOTEN  =       -23.94107817 eV

  energy without entropy =      -23.94107817  energy(sigma->0) =      -23.94107817


--------------------------------------------------------------------------------------------------------




 average (electrostatic) potential at core
  the test charge radii are     0.5201  0.6991
  (the norm of the test charge is              1.0000)
       1 -41.7616       2 -41.5021       3 -41.4123       4 -41.5842       5 -57.9367



 E-fermi :  -8.5114     XC(G=0):  -0.6578     alpha+bet : -0.1967


 k-point     1 :       0.0000    0.0000    0.0000
  band No.  band energies     occupation 
      1     -16.9637      2.00000
      2      -9.6920      2.00000
      3      -9.4891      2.00000
      4      -8.7639      2.00000
      5      -0.5173      0.00000
      6       0.9290      0.00000
      7       0.9746      0.00000
      8       0.9856      0.00000


--------------------------------------------------------------------------------------------------------


 soft charge-density along one line, spin component           1
         0         1         2         3         4         5         6         7         8         9
 total charge-density along one line

 pseudopotential strength for first ion, spin component:           1
 -2.344  -4.039  -0.001  -0.001   0.000
 -4.039  -6.875  -0.004  -0.004   0.001
 -0.001  -0.004  -0.335   0.003  -0.001
 -0.001  -0.004   0.003  -0.335  -0.001
  0.000   0.001  -0.001  -0.001  -0.337
 total augmentation occupancy for first ion, spin component:           1
  3.622  -0.648   0.312   0.332  -0.063
 -0.648   0.129  -0.057  -0.060   0.011
  0.312  -0.057   0.032   0.024  -0.004
  0.332  -0.060   0.024   0.035  -0.005
 -0.063   0.011  -0.004  -0.005   0.011


------------------------ aborting loop because EDIFF is reached ----------------------------------------


    CHARGE:  cpu time    0.1601: real time    0.1605
    FORLOC:  cpu time    0.1361: real time    0.1364
    FORNL :  cpu time    0.2161: real time    0.2166
    STRESS:  cpu time    0.8827: real time    0.8848
    FORCOR:  cpu time    2.1564: real time    2.1615
    FORHAR:  cpu time    0.6872: real time    0.6888
    MIXING:  cpu time    0.0696: real time    0.0697
    OFIELD:  cpu time    0.0000: real time    0.0000

  FORCE on cell =-STRESS in cart. coord.  units (eV):
  Direction    XX          YY          ZZ          XY          YZ          ZX
  --------------------------------------------------------------------------------------
  Alpha Z     0.22614     0.22614     0.22614
  Ewald      34.91266    49.59360    48.79786    -6.72137     1.08407    -2.62832
  Hartree    93.20866    98.91243    96.59253    -1.44121    -0.02415    -1.05235
  E(xc)     -27.32317   -27.26371   -27.26206    -0.03343    -0.00199    -0.01374
  Local    -188.46163  -206.58008  -202.93457     6.75153    -0.60870     3.31661
  n-local   -16.11019   -16.03400   -16.02048    -0.00572    -0.01159     0.01114
  augment     0.12371     0.10795     0.10317     0.01054    -0.00458     0.00263
  Kinetic   103.87851   100.60550   100.37418     1.75838    -0.04559     0.54118
  Fock        0.00000     0.00000     0.00000     0.00000     0.00000     0.00000
  -------------------------------------------------------------------------------------
  Total       0.45468    -0.43217    -0.12322     0.31871     0.38748     0.17714
  in kB       0.68002    -0.64635    -0.18430     0.47667     0.57951     0.26493
  external pressure =       -0.05 kB  Pullay stress =        0.00 kB


 VOLUME and BASIS-vectors are now :
 -----------------------------------------------------------------------------
  energy-cutoff  :      400.00
  volume of cell :     1071.25
      direct lattice vectors                 reciprocal lattice vectors
    10.304924000  0.000000000  0.000000000     0.097040987 -0.001819115  0.002591434
     0.189287600 10.097576100  0.000000000     0.000000000  0.099033668 -0.000735626
    -0.273492000  0.076472300 10.295088800     0.000000000  0.000000000  0.097133693

  length of vectors
    10.304924000 10.099350122 10.299004772     0.097092626  0.099036400  0.097133693


 FORCES acting on ions
    electron-ion (+dipol)            ewald-force                    non-local-force                 convergence-correction
 -----------------------------------------------------------------------------------------------
   -.749E+01 0.370E+02 0.385E+02   0.823E+01 -.415E+02 -.432E+02   -.835E+00 0.398E+01 0.425E+01   -.947E-05 0.341E-05 -.443E-05
   0.508E+02 -.146E+02 -.693E+01   -.565E+02 0.157E+02 0.754E+01   0.519E+01 -.170E+01 -.760E+00   -.444E-04 -.691E-05 0.141E-05
   -.212E+02 -.458E+02 0.153E+02   0.237E+02 0.502E+02 -.167E+02   -.197E+01 -.471E+01 0.156E+01   0.253E-04 0.335E-04 -.184E-04
   -.180E+02 0.161E+02 -.475E+02   0.201E+02 -.178E+02 0.526E+02   -.180E+01 0.163E+01 -.505E+01   0.695E-05 -.725E-05 0.232E-04
   -.404E+01 0.641E+01 0.313E+00   0.435E+01 -.658E+01 -.186E+00   -.624E+00 0.166E+01 0.246E+00   0.136E-04 -.162E-03 0.114E-04
 -----------------------------------------------------------------------------------------------
   0.420E-01 -.857E+00 -.241E+00   0.355E-14 0.355E-14 -.711E-14   -.426E-01 0.858E+00 0.242E+00   -.799E-05 -.140E-03 0.132E-04


 POSITION                                       TOTAL-FORCE (eV/Angst)
 -----------------------------------------------------------------------------------
      5.30265      4.00748      3.80877        -0.090906     -0.561489     -0.405725
      4.11938      5.04906      4.72283        -0.484085     -0.546177     -0.151116
      5.59147      5.70439      4.26360         0.536260     -0.323090      0.157960
      5.52104      4.41941      5.55767         0.352656     -0.064896      0.025900
      5.15755      4.73919      4.58094        -0.313925      1.495652      0.372980
 -----------------------------------------------------------------------------------
    total drift:                               -0.000619      0.000913      0.000248


--------------------------------------------------------------------------------------------------------



  FREE ENERGIE OF THE ION-ELECTRON SYSTEM (eV)
  ---------------------------------------------------
  free  energy   TOTEN  =       -23.94107817 eV

  energy  without entropy=      -23.94107817  energy(sigma->0) =      -23.94107817



--------------------------------------------------------------------------------------------------------


    POTLOK:  cpu time    2.0874: real time    2.0950


--------------------------------------------------------------------------------------------------------


     LOOP+:  cpu time   58.1674: real time   58.3137
    4ORBIT:  cpu time    0.0000: real time    0.0000

 total amount of memory used by VASP MPI-rank0   297494. kBytes
=======================================================================

   base      :      30000. kBytes
   nonlr-proj:       1256. kBytes
   fftplans  :      94700. kBytes
   grid      :     169030. kBytes
   one-center:         15. kBytes
   wavefun   :       2493. kBytes

  
  
 General timing and accounting informations for this job:
 ========================================================
  
                  Total CPU time used (sec):       59.865
                            User time (sec):       58.245
                          System time (sec):        1.620
                         Elapsed time (sec):       60.030
  
                   Maximum memory used (kb):      422720.
                   Average memory used (kb):           0.
  
                          Minor page faults:       206875
                          Major page faults:            0
                 Voluntary context switches:          134
