<UPF version="2.0.1">
  <PP_INFO>

 This pseudopotential file has been produced using the code
 ONCVPSP  (Optimized Norm-Conservinng Vanderbilt PSeudopotential)
 scalar-relativistic version 2.1.1, 03/26/2014 by D. R. Hamann
 The code is available through a link at URL www.mat-simresearch.com.
 Documentation with the package provides a full discription of the
 input data below.


 While it is not required under the terms of the GNU GPL, it is
 suggested that you cite D. R. Hamann, Phys. Rev. B 88, 085117 (2013)
 in any publication using these pseudopotentials.


 Copyright 2015 The Regents of the University of California
 
 This work is licensed under the Creative Commons Attribution-ShareAlike 
 4.0 International License. To view a copy of this license, visit 
 http://creativecommons.org/licenses/by-sa/4.0/ or send a letter to 
 Creative Commons, PO Box 1866, Mountain View, CA 94042, USA.
 
 This pseudopotential is part of the Schlipf-Gygi norm-conserving 
 pseudopotential library. Its construction parameters were tuned to 
 reproduce materials of a training set with very high accuracy and 
 should be suitable as a general purpose pseudopotential to treat a 
 variety of different compounds. For details of the construction and 
 testing of the pseudopotential please refer to:
 
 [insert reference to paper here]
 
 We kindly ask that you include this reference in all publications 
 associated to this pseudopotential.


    <PP_INPUTFILE>
# ATOM AND REFERENCE CONFIGURATION
# atsym  z    nc    nv    iexc   psfile
  Al 13.00     1     4     4      upf
#
#   n    l    f        energy (Ha)
    1    0    2.00
    2    0    2.00
    2    1    6.00
    3    0    2.00
    3    1    1.00
#
# PSEUDOPOTENTIAL AND OPTIMIZATION
# lmax
    1
#
#   l,   rc,     ep,   ncon, nbas, qcut
    0   1.29657  -3.97500    5    8  10.30030
    1   2.41091  -2.55934    5    8   7.02214
#
# LOCAL POTENTIAL
# lloc, lpopt,  rc(5),   dvloc0
    4    5   0.93955      0.00000
#
# VANDERBILT-KLEINMAN-BYLANDER PROJECTORs
# l, nproj, debl
    0    2   3.69008
    1    2   2.45967
#
# MODEL CORE CHARGE
# icmod, fcfact
    0   0.00000
#
# LOG DERIVATIVE ANALYSIS
# epsh1, epsh2, depsh
   -5.00    3.00    0.02
#
# OUTPUT GRID
# rlmax, drl
    6.00    0.01
#
# TEST CONFIGURATIONS
# ncnf
    0
# nvcnf
#   n    l    f
    </PP_INPUTFILE>
  </PP_INFO>
  <!--                               -->
  <!-- END OF HUMAN READABLE SECTION -->
  <!--                               -->
    <PP_HEADER
       generated="Generated using ONCVPSP code by D. R. Hamann"
       author="Martin Schlipf and Francois Gygi"
       date="150105"
       comment=""
       element="Al"
       pseudo_type="NC"
       relativistic="scalar"
       is_ultrasoft="F"
       is_paw="F"
       is_coulomb="F"
       has_so="F"
       has_wfc="F"
       has_gipaw="F"
       core_correction="F"
       functional="PBE"
       z_valence="   11.00"
       total_psenergy="  -6.90690753360E+01"
       rho_cutoff="   6.01000000000E+00"
       l_max="1"
       l_local="-1"
       mesh_size="   602"
       number_of_wfc="0"
       number_of_proj="4"/>
 <PP_MESH>
   <PP_R type="real"  size=" 602" columns="8">
    0.0000    0.0100    0.0200    0.0300    0.0400    0.0500    0.0600    0.0700
    0.0800    0.0900    0.1000    0.1100    0.1200    0.1300    0.1400    0.1500
    0.1600    0.1700    0.1800    0.1900    0.2000    0.2100    0.2200    0.2300
    0.2400    0.2500    0.2600    0.2700    0.2800    0.2900    0.3000    0.3100
    0.3200    0.3300    0.3400    0.3500    0.3600    0.3700    0.3800    0.3900
    0.4000    0.4100    0.4200    0.4300    0.4400    0.4500    0.4600    0.4700
    0.4800    0.4900    0.5000    0.5100    0.5200    0.5300    0.5400    0.5500
    0.5600    0.5700    0.5800    0.5900    0.6000    0.6100    0.6200    0.6300
    0.6400    0.6500    0.6600    0.6700    0.6800    0.6900    0.7000    0.7100
    0.7200    0.7300    0.7400    0.7500    0.7600    0.7700    0.7800    0.7900
    0.8000    0.8100    0.8200    0.8300    0.8400    0.8500    0.8600    0.8700
    0.8800    0.8900    0.9000    0.9100    0.9200    0.9300    0.9400    0.9500
    0.9600    0.9700    0.9800    0.9900    1.0000    1.0100    1.0200    1.0300
    1.0400    1.0500    1.0600    1.0700    1.0800    1.0900    1.1000    1.1100
    1.1200    1.1300    1.1400    1.1500    1.1600    1.1700    1.1800    1.1900
    1.2000    1.2100    1.2200    1.2300    1.2400    1.2500    1.2600    1.2700
    1.2800    1.2900    1.3000    1.3100    1.3200    1.3300    1.3400    1.3500
    1.3600    1.3700    1.3800    1.3900    1.4000    1.4100    1.4200    1.4300
    1.4400    1.4500    1.4600    1.4700    1.4800    1.4900    1.5000    1.5100
    1.5200    1.5300    1.5400    1.5500    1.5600    1.5700    1.5800    1.5900
    1.6000    1.6100    1.6200    1.6300    1.6400    1.6500    1.6600    1.6700
    1.6800    1.6900    1.7000    1.7100    1.7200    1.7300    1.7400    1.7500
    1.7600    1.7700    1.7800    1.7900    1.8000    1.8100    1.8200    1.8300
    1.8400    1.8500    1.8600    1.8700    1.8800    1.8900    1.9000    1.9100
    1.9200    1.9300    1.9400    1.9500    1.9600    1.9700    1.9800    1.9900
    2.0000    2.0100    2.0200    2.0300    2.0400    2.0500    2.0600    2.0700
    2.0800    2.0900    2.1000    2.1100    2.1200    2.1300    2.1400    2.1500
    2.1600    2.1700    2.1800    2.1900    2.2000    2.2100    2.2200    2.2300
    2.2400    2.2500    2.2600    2.2700    2.2800    2.2900    2.3000    2.3100
    2.3200    2.3300    2.3400    2.3500    2.3600    2.3700    2.3800    2.3900
    2.4000    2.4100    2.4200    2.4300    2.4400    2.4500    2.4600    2.4700
    2.4800    2.4900    2.5000    2.5100    2.5200    2.5300    2.5400    2.5500
    2.5600    2.5700    2.5800    2.5900    2.6000    2.6100    2.6200    2.6300
    2.6400    2.6500    2.6600    2.6700    2.6800    2.6900    2.7000    2.7100
    2.7200    2.7300    2.7400    2.7500    2.7600    2.7700    2.7800    2.7900
    2.8000    2.8100    2.8200    2.8300    2.8400    2.8500    2.8600    2.8700
    2.8800    2.8900    2.9000    2.9100    2.9200    2.9300    2.9400    2.9500
    2.9600    2.9700    2.9800    2.9900    3.0000    3.0100    3.0200    3.0300
    3.0400    3.0500    3.0600    3.0700    3.0800    3.0900    3.1000    3.1100
    3.1200    3.1300    3.1400    3.1500    3.1600    3.1700    3.1800    3.1900
    3.2000    3.2100    3.2200    3.2300    3.2400    3.2500    3.2600    3.2700
    3.2800    3.2900    3.3000    3.3100    3.3200    3.3300    3.3400    3.3500
    3.3600    3.3700    3.3800    3.3900    3.4000    3.4100    3.4200    3.4300
    3.4400    3.4500    3.4600    3.4700    3.4800    3.4900    3.5000    3.5100
    3.5200    3.5300    3.5400    3.5500    3.5600    3.5700    3.5800    3.5900
    3.6000    3.6100    3.6200    3.6300    3.6400    3.6500    3.6600    3.6700
    3.6800    3.6900    3.7000    3.7100    3.7200    3.7300    3.7400    3.7500
    3.7600    3.7700    3.7800    3.7900    3.8000    3.8100    3.8200    3.8300
    3.8400    3.8500    3.8600    3.8700    3.8800    3.8900    3.9000    3.9100
    3.9200    3.9300    3.9400    3.9500    3.9600    3.9700    3.9800    3.9900
    4.0000    4.0100    4.0200    4.0300    4.0400    4.0500    4.0600    4.0700
    4.0800    4.0900    4.1000    4.1100    4.1200    4.1300    4.1400    4.1500
    4.1600    4.1700    4.1800    4.1900    4.2000    4.2100    4.2200    4.2300
    4.2400    4.2500    4.2600    4.2700    4.2800    4.2900    4.3000    4.3100
    4.3200    4.3300    4.3400    4.3500    4.3600    4.3700    4.3800    4.3900
    4.4000    4.4100    4.4200    4.4300    4.4400    4.4500    4.4600    4.4700
    4.4800    4.4900    4.5000    4.5100    4.5200    4.5300    4.5400    4.5500
    4.5600    4.5700    4.5800    4.5900    4.6000    4.6100    4.6200    4.6300
    4.6400    4.6500    4.6600    4.6700    4.6800    4.6900    4.7000    4.7100
    4.7200    4.7300    4.7400    4.7500    4.7600    4.7700    4.7800    4.7900
    4.8000    4.8100    4.8200    4.8300    4.8400    4.8500    4.8600    4.8700
    4.8800    4.8900    4.9000    4.9100    4.9200    4.9300    4.9400    4.9500
    4.9600    4.9700    4.9800    4.9900    5.0000    5.0100    5.0200    5.0300
    5.0400    5.0500    5.0600    5.0700    5.0800    5.0900    5.1000    5.1100
    5.1200    5.1300    5.1400    5.1500    5.1600    5.1700    5.1800    5.1900
    5.2000    5.2100    5.2200    5.2300    5.2400    5.2500    5.2600    5.2700
    5.2800    5.2900    5.3000    5.3100    5.3200    5.3300    5.3400    5.3500
    5.3600    5.3700    5.3800    5.3900    5.4000    5.4100    5.4200    5.4300
    5.4400    5.4500    5.4600    5.4700    5.4800    5.4900    5.5000    5.5100
    5.5200    5.5300    5.5400    5.5500    5.5600    5.5700    5.5800    5.5900
    5.6000    5.6100    5.6200    5.6300    5.6400    5.6500    5.6600    5.6700
    5.6800    5.6900    5.7000    5.7100    5.7200    5.7300    5.7400    5.7500
    5.7600    5.7700    5.7800    5.7900    5.8000    5.8100    5.8200    5.8300
    5.8400    5.8500    5.8600    5.8700    5.8800    5.8900    5.9000    5.9100
    5.9200    5.9300    5.9400    5.9500    5.9600    5.9700    5.9800    5.9900
    6.0000    6.0100
   </PP_R>
   <PP_RAB type="real"  size=" 602" columns="8">
    0.0100    0.0100    0.0100    0.0100    0.0100    0.0100    0.0100    0.0100
    0.0100    0.0100    0.0100    0.0100    0.0100    0.0100    0.0100    0.0100
    0.0100    0.0100    0.0100    0.0100    0.0100    0.0100    0.0100    0.0100
    0.0100    0.0100    0.0100    0.0100    0.0100    0.0100    0.0100    0.0100
    0.0100    0.0100    0.0100    0.0100    0.0100    0.0100    0.0100    0.0100
    0.0100    0.0100    0.0100    0.0100    0.0100    0.0100    0.0100    0.0100
    0.0100    0.0100    0.0100    0.0100    0.0100    0.0100    0.0100    0.0100
    0.0100    0.0100    0.0100    0.0100    0.0100    0.0100    0.0100    0.0100
    0.0100    0.0100    0.0100    0.0100    0.0100    0.0100    0.0100    0.0100
    0.0100    0.0100    0.0100    0.0100    0.0100    0.0100    0.0100    0.0100
    0.0100    0.0100    0.0100    0.0100    0.0100    0.0100    0.0100    0.0100
    0.0100    0.0100    0.0100    0.0100    0.0100    0.0100    0.0100    0.0100
    0.0100    0.0100    0.0100    0.0100    0.0100    0.0100    0.0100    0.0100
    0.0100    0.0100    0.0100    0.0100    0.0100    0.0100    0.0100    0.0100
    0.0100    0.0100    0.0100    0.0100    0.0100    0.0100    0.0100    0.0100
    0.0100    0.0100    0.0100    0.0100    0.0100    0.0100    0.0100    0.0100
    0.0100    0.0100    0.0100    0.0100    0.0100    0.0100    0.0100    0.0100
    0.0100    0.0100    0.0100    0.0100    0.0100    0.0100    0.0100    0.0100
    0.0100    0.0100    0.0100    0.0100    0.0100    0.0100    0.0100    0.0100
    0.0100    0.0100    0.0100    0.0100    0.0100    0.0100    0.0100    0.0100
    0.0100    0.0100    0.0100    0.0100    0.0100    0.0100    0.0100    0.0100
    0.0100    0.0100    0.0100    0.0100    0.0100    0.0100    0.0100    0.0100
    0.0100    0.0100    0.0100    0.0100    0.0100    0.0100    0.0100    0.0100
    0.0100    0.0100    0.0100    0.0100    0.0100    0.0100    0.0100    0.0100
    0.0100    0.0100    0.0100    0.0100    0.0100    0.0100    0.0100    0.0100
    0.0100    0.0100    0.0100    0.0100    0.0100    0.0100    0.0100    0.0100
    0.0100    0.0100    0.0100    0.0100    0.0100    0.0100    0.0100    0.0100
    0.0100    0.0100    0.0100    0.0100    0.0100    0.0100    0.0100    0.0100
    0.0100    0.0100    0.0100    0.0100    0.0100    0.0100    0.0100    0.0100
    0.0100    0.0100    0.0100    0.0100    0.0100    0.0100    0.0100    0.0100
    0.0100    0.0100    0.0100    0.0100    0.0100    0.0100    0.0100    0.0100
    0.0100    0.0100    0.0100    0.0100    0.0100    0.0100    0.0100    0.0100
    0.0100    0.0100    0.0100    0.0100    0.0100    0.0100    0.0100    0.0100
    0.0100    0.0100    0.0100    0.0100    0.0100    0.0100    0.0100    0.0100
    0.0100    0.0100    0.0100    0.0100    0.0100    0.0100    0.0100    0.0100
    0.0100    0.0100    0.0100    0.0100    0.0100    0.0100    0.0100    0.0100
    0.0100    0.0100    0.0100    0.0100    0.0100    0.0100    0.0100    0.0100
    0.0100    0.0100    0.0100    0.0100    0.0100    0.0100    0.0100    0.0100
    0.0100    0.0100    0.0100    0.0100    0.0100    0.0100    0.0100    0.0100
    0.0100    0.0100    0.0100    0.0100    0.0100    0.0100    0.0100    0.0100
    0.0100    0.0100    0.0100    0.0100    0.0100    0.0100    0.0100    0.0100
    0.0100    0.0100    0.0100    0.0100    0.0100    0.0100    0.0100    0.0100
    0.0100    0.0100    0.0100    0.0100    0.0100    0.0100    0.0100    0.0100
    0.0100    0.0100    0.0100    0.0100    0.0100    0.0100    0.0100    0.0100
    0.0100    0.0100    0.0100    0.0100    0.0100    0.0100    0.0100    0.0100
    0.0100    0.0100    0.0100    0.0100    0.0100    0.0100    0.0100    0.0100
    0.0100    0.0100    0.0100    0.0100    0.0100    0.0100    0.0100    0.0100
    0.0100    0.0100    0.0100    0.0100    0.0100    0.0100    0.0100    0.0100
    0.0100    0.0100    0.0100    0.0100    0.0100    0.0100    0.0100    0.0100
    0.0100    0.0100    0.0100    0.0100    0.0100    0.0100    0.0100    0.0100
    0.0100    0.0100    0.0100    0.0100    0.0100    0.0100    0.0100    0.0100
    0.0100    0.0100    0.0100    0.0100    0.0100    0.0100    0.0100    0.0100
    0.0100    0.0100    0.0100    0.0100    0.0100    0.0100    0.0100    0.0100
    0.0100    0.0100    0.0100    0.0100    0.0100    0.0100    0.0100    0.0100
    0.0100    0.0100    0.0100    0.0100    0.0100    0.0100    0.0100    0.0100
    0.0100    0.0100    0.0100    0.0100    0.0100    0.0100    0.0100    0.0100
    0.0100    0.0100    0.0100    0.0100    0.0100    0.0100    0.0100    0.0100
    0.0100    0.0100    0.0100    0.0100    0.0100    0.0100    0.0100    0.0100
    0.0100    0.0100    0.0100    0.0100    0.0100    0.0100    0.0100    0.0100
    0.0100    0.0100    0.0100    0.0100    0.0100    0.0100    0.0100    0.0100
    0.0100    0.0100    0.0100    0.0100    0.0100    0.0100    0.0100    0.0100
    0.0100    0.0100    0.0100    0.0100    0.0100    0.0100    0.0100    0.0100
    0.0100    0.0100    0.0100    0.0100    0.0100    0.0100    0.0100    0.0100
    0.0100    0.0100    0.0100    0.0100    0.0100    0.0100    0.0100    0.0100
    0.0100    0.0100    0.0100    0.0100    0.0100    0.0100    0.0100    0.0100
    0.0100    0.0100    0.0100    0.0100    0.0100    0.0100    0.0100    0.0100
    0.0100    0.0100    0.0100    0.0100    0.0100    0.0100    0.0100    0.0100
    0.0100    0.0100    0.0100    0.0100    0.0100    0.0100    0.0100    0.0100
    0.0100    0.0100    0.0100    0.0100    0.0100    0.0100    0.0100    0.0100
    0.0100    0.0100    0.0100    0.0100    0.0100    0.0100    0.0100    0.0100
    0.0100    0.0100    0.0100    0.0100    0.0100    0.0100    0.0100    0.0100
    0.0100    0.0100    0.0100    0.0100    0.0100    0.0100    0.0100    0.0100
    0.0100    0.0100    0.0100    0.0100    0.0100    0.0100    0.0100    0.0100
    0.0100    0.0100    0.0100    0.0100    0.0100    0.0100    0.0100    0.0100
    0.0100    0.0100    0.0100    0.0100    0.0100    0.0100    0.0100    0.0100
    0.0100    0.0100
   </PP_RAB>
 </PP_MESH>
  <PP_LOCAL type="real"  size=" 602" columns="4">
   -4.5793174225E+01   -4.5788454271E+01   -4.5774276797E+01   -4.5750659428E+01
   -4.5717619792E+01   -4.5675182552E+01   -4.5623379390E+01   -4.5562248988E+01
   -4.5491837004E+01   -4.5412196044E+01   -4.5323385623E+01   -4.5225472132E+01
   -4.5118528788E+01   -4.5002635589E+01   -4.4877879255E+01   -4.4744353169E+01
   -4.4602157309E+01   -4.4451398177E+01   -4.4292188720E+01   -4.4124648245E+01
   -4.3948902327E+01   -4.3765082717E+01   -4.3573327237E+01   -4.3373779671E+01
   -4.3166589651E+01   -4.2951912547E+01   -4.2729909330E+01   -4.2500746455E+01
   -4.2264595727E+01   -4.2021634162E+01   -4.1772043851E+01   -4.1516011824E+01
   -4.1253729894E+01   -4.0985394533E+01   -4.0711206709E+01   -4.0431371752E+01
   -4.0146099200E+01   -3.9855602666E+01   -3.9560099675E+01   -3.9259811534E+01
   -3.8954963181E+01   -3.8645783041E+01   -3.8332502872E+01   -3.8015357622E+01
   -3.7694585273E+01   -3.7370426682E+01   -3.7043125420E+01   -3.6712927591E+01
   -3.6380081658E+01   -3.6044838254E+01   -3.5707449960E+01   -3.5368171082E+01
   -3.5027257428E+01   -3.4684966035E+01   -3.4341554884E+01   -3.3997282619E+01
   -3.3652408207E+01   -3.3307190596E+01   -3.2961888362E+01   -3.2616759283E+01
   -3.2272059999E+01   -3.1928045476E+01   -3.1584968662E+01   -3.1243079972E+01
   -3.0902626759E+01   -3.0563852936E+01   -3.0226998404E+01   -2.9892298452E+01
   -2.9559983380E+01   -2.9230277982E+01   -2.8903400893E+01   -2.8579564063E+01
   -2.8258972337E+01   -2.7941822884E+01   -2.7628304667E+01   -2.7318598034E+01
   -2.7012873867E+01   -2.6711293357E+01   -2.6414007425E+01   -2.6121156194E+01
   -2.5832868475E+01   -2.5549261252E+01   -2.5270439163E+01   -2.4996493981E+01
   -2.4727504090E+01   -2.4463533948E+01   -2.4204633551E+01   -2.3950837873E+01
   -2.3702166308E+01   -2.3458622083E+01   -2.3220191664E+01   -2.2986844139E+01
   -2.2758530585E+01   -2.2535183375E+01   -2.2316715573E+01   -2.2103021768E+01
   -2.1893987279E+01   -2.1689498489E+01   -2.1489442457E+01   -2.1293706326E+01
   -2.1102176634E+01   -2.0914738702E+01   -2.0731276196E+01   -2.0551670390E+01
   -2.0375799754E+01   -2.0203539748E+01   -2.0034762549E+01   -1.9869337083E+01
   -1.9707128683E+01   -1.9547999147E+01   -1.9391807463E+01   -1.9238410108E+01
   -1.9087661528E+01   -1.8939414588E+01   -1.8793522086E+01   -1.8649837370E+01
   -1.8508214910E+01   -1.8368512890E+01   -1.8230593513E+01   -1.8094323159E+01
   -1.7959575768E+01   -1.7826233921E+01   -1.7694187632E+01   -1.7563336319E+01
   -1.7433593958E+01   -1.7304883939E+01   -1.7177140271E+01   -1.7050316722E+01
   -1.6924377020E+01   -1.6799297378E+01   -1.6675076787E+01   -1.6551723315E+01
   -1.6429261334E+01   -1.6307737259E+01   -1.6187204514E+01   -1.6067738582E+01
   -1.5949430494E+01   -1.5832376776E+01   -1.5716700129E+01   -1.5602525316E+01
   -1.5489990378E+01   -1.5379242195E+01   -1.5270429836E+01   -1.5163707747E+01
   -1.5059226717E+01   -1.4957136513E+01   -1.4857570026E+01   -1.4760663767E+01
   -1.4666511197E+01   -1.4575211522E+01   -1.4486807710E+01   -1.4401324722E+01
   -1.4318744132E+01   -1.4238980817E+01   -1.4161938010E+01   -1.4087395431E+01
   -1.4015161855E+01   -1.3944887653E+01   -1.3876268641E+01   -1.3808878106E+01
   -1.3742319487E+01   -1.3676155917E+01   -1.3609972047E+01   -1.3543392863E+01
   -1.3476076459E+01   -1.3407777571E+01   -1.3338297766E+01   -1.3267560877E+01
   -1.3195533856E+01   -1.3122304307E+01   -1.3047978845E+01   -1.2972761216E+01
   -1.2896845774E+01   -1.2820482588E+01   -1.2743900257E+01   -1.2667329709E+01
   -1.2590993198E+01   -1.2515060914E+01   -1.2439723914E+01   -1.2365079394E+01
   -1.2291274968E+01   -1.2218347544E+01   -1.2146390771E+01   -1.2075410030E+01
   -1.2005443278E+01   -1.1936484441E+01   -1.1868531365E+01   -1.1801570383E+01
   -1.1735578217E+01   -1.1670534625E+01   -1.1606409500E+01   -1.1543176908E+01
   -1.1480807926E+01   -1.1419273524E+01   -1.1358547699E+01   -1.1298603110E+01
   -1.1239414754E+01   -1.1180959916E+01   -1.1123213929E+01   -1.1066158555E+01
   -1.1009771504E+01   -1.0954036114E+01   -1.0898934548E+01   -1.0844449966E+01
   -1.0790568699E+01   -1.0737274132E+01   -1.0684554834E+01   -1.0632397012E+01
   -1.0580788619E+01   -1.0529718843E+01   -1.0479175385E+01   -1.0429149053E+01
   -1.0379629099E+01   -1.0330605943E+01   -1.0282070767E+01   -1.0234013649E+01
   -1.0186426820E+01   -1.0139301497E+01   -1.0092629437E+01   -1.0046403192E+01
   -1.0000614450E+01   -9.9552562574E+00   -9.9103213175E+00   -9.8658021883E+00
   -9.8216925418E+00   -9.7779853200E+00   -9.7346741018E+00   -9.6917528630E+00
   -9.6492148919E+00   -9.6070546837E+00   -9.5652664266E+00   -9.5238440186E+00
   -9.4827825370E+00   -9.4420764134E+00   -9.4017203379E+00   -9.3617097175E+00
   -9.3220393177E+00   -9.2827045571E+00   -9.2437011572E+00   -9.2050242481E+00
   -9.1666698740E+00   -9.1286340414E+00   -9.0909123106E+00   -9.0535011176E+00
   -9.0163966698E+00   -8.9795949149E+00   -8.9430924504E+00   -8.9068856197E+00
   -8.8709706212E+00   -8.8353441902E+00   -8.8000028322E+00   -8.7649429429E+00
   -8.7301613994E+00   -8.6956548633E+00   -8.6614198846E+00   -8.6274535016E+00
   -8.5937525419E+00   -8.5603136998E+00   -8.5271341568E+00   -8.4942109030E+00
   -8.4615407433E+00   -8.4291210081E+00   -8.3969488321E+00   -8.3650211679E+00
   -8.3333354339E+00   -8.3018889174E+00   -8.2706787325E+00   -8.2397023489E+00
   -8.2089572110E+00   -8.1784405968E+00   -8.1481500047E+00   -8.1180830358E+00
   -8.0882371342E+00   -8.0586098070E+00   -8.0291988103E+00   -8.0000017559E+00
   -7.9710161441E+00   -7.9422398810E+00   -7.9136707096E+00   -7.8853062259E+00
   -7.8571443658E+00   -7.8291830147E+00   -7.8014199340E+00   -7.7738530065E+00
   -7.7464802780E+00   -7.7192996806E+00   -7.6923090311E+00   -7.6655065287E+00
   -7.6388902172E+00   -7.6124580244E+00   -7.5862081118E+00   -7.5601386729E+00
   -7.5342478061E+00   -7.5085335693E+00   -7.4829943156E+00   -7.4576282669E+00
   -7.4324335284E+00   -7.4074084470E+00   -7.3825513770E+00   -7.3578605956E+00
   -7.3333343157E+00   -7.3089710527E+00   -7.2847691902E+00   -7.2607270198E+00
   -7.2368429926E+00   -7.2131156354E+00   -7.1895434072E+00   -7.1661246255E+00
   -7.1428579503E+00   -7.1197419205E+00   -7.0967750240E+00   -7.0739557449E+00
   -7.0512827904E+00   -7.0287547599E+00   -7.0063701691E+00   -6.9841276710E+00
   -6.9620259959E+00   -6.9400638084E+00   -6.9182396593E+00   -6.8965523464E+00
   -6.8750006260E+00   -6.8535832250E+00   -6.8322987355E+00   -6.8111460762E+00
   -6.7901240341E+00   -6.7692313755E+00   -6.7484667982E+00   -6.7278292605E+00
   -6.7073176048E+00   -6.6869306406E+00   -6.6666671559E+00   -6.6465261477E+00
   -6.6265065128E+00   -6.6066071075E+00   -6.5868267918E+00   -6.5671646050E+00
   -6.5476194954E+00   -6.5281903708E+00   -6.5088761451E+00   -6.4896759038E+00
   -6.4705886441E+00   -6.4516133289E+00   -6.4327489098E+00   -6.4139945219E+00
   -6.3953492088E+00   -6.3768119923E+00   -6.3583818464E+00   -6.3400579585E+00
   -6.3218394170E+00   -6.3037253054E+00   -6.2857146065E+00   -6.2678065624E+00
   -6.2500003039E+00   -6.2322949620E+00   -6.2146895692E+00   -6.1971833707E+00
   -6.1797755553E+00   -6.1624652945E+00   -6.1452516893E+00   -6.1281339595E+00
   -6.1111113599E+00   -6.0941831004E+00   -6.0773483541E+00   -6.0606063040E+00
   -6.0439562720E+00   -6.0273975048E+00   -6.0109292492E+00   -5.9945506474E+00
   -5.9782610829E+00   -5.9620598393E+00   -5.9459461983E+00   -5.9299193785E+00
   -5.9139787003E+00   -5.8981235231E+00   -5.8823531622E+00   -5.8666669171E+00
   -5.8510640359E+00   -5.8355439529E+00   -5.8201060154E+00   -5.8047495705E+00
   -5.7894738992E+00   -5.7742783981E+00   -5.7591624809E+00   -5.7441255252E+00
   -5.7291668988E+00   -5.7142859036E+00   -5.6994820342E+00   -5.6847546971E+00
   -5.6701032988E+00   -5.6555271981E+00   -5.6410258128E+00   -5.6265986270E+00
   -5.6122450750E+00   -5.5979645910E+00   -5.5837565316E+00   -5.5696204135E+00
   -5.5555557140E+00   -5.5415618937E+00   -5.5276384028E+00   -5.5137846338E+00
   -5.5000001533E+00   -5.4862844471E+00   -5.4726370009E+00   -5.4590572697E+00
   -5.4455447177E+00   -5.4320989146E+00   -5.4187193700E+00   -5.4054055938E+00
   -5.3921570507E+00   -5.3789732622E+00   -5.3658538052E+00   -5.3527982121E+00
   -5.3398060155E+00   -5.3268766948E+00   -5.3140098151E+00   -5.3012049642E+00
   -5.2884616967E+00   -5.2757795668E+00   -5.2631580727E+00   -5.2505968098E+00
   -5.2380953817E+00   -5.2256533635E+00   -5.2132703304E+00   -5.2009458033E+00
   -5.1886793955E+00   -5.1764707305E+00   -5.1643194032E+00   -5.1522250085E+00
   -5.1401870938E+00   -5.1282052788E+00   -5.1162792108E+00   -5.1044085035E+00
   -5.0925927708E+00   -5.0808315898E+00   -5.0691245763E+00   -5.0574714045E+00
   -5.0458717063E+00   -5.0343251134E+00   -5.0228312366E+00   -5.0113896772E+00
   -5.0000001400E+00   -4.9886622737E+00   -4.9773757274E+00   -4.9661401487E+00
   -4.9549551157E+00   -4.9438203658E+00   -4.9327355642E+00   -4.9217003762E+00
   -4.9107144672E+00   -4.8997774511E+00   -4.8888890330E+00   -4.8780489159E+00
   -4.8672567807E+00   -4.8565123083E+00   -4.8458151563E+00   -4.8351649849E+00
   -4.8245615383E+00   -4.8140045122E+00   -4.8034936025E+00   -4.7930285048E+00
   -4.7826088542E+00   -4.7722344106E+00   -4.7619048927E+00   -4.7516200103E+00
   -4.7413794734E+00   -4.7311829666E+00   -4.7210301867E+00   -4.7109209003E+00
   -4.7008548308E+00   -4.6908317017E+00   -4.6808512365E+00   -4.6709131059E+00
   -4.6610170820E+00   -4.6511629151E+00   -4.6413503415E+00   -4.6315790976E+00
   -4.6218489098E+00   -4.6121594711E+00   -4.6025105849E+00   -4.5929019999E+00
   -4.5833334646E+00   -4.5738047277E+00   -4.5643155095E+00   -4.5548655562E+00
   -4.5454546636E+00   -4.5360825922E+00   -4.5267491023E+00   -4.5174539542E+00
   -4.5081968671E+00   -4.4989776284E+00   -4.4897960308E+00   -4.4806518458E+00
   -4.4715448449E+00   -4.4624747996E+00   -4.4534414324E+00   -4.4444445607E+00
   -4.4354839781E+00   -4.4265594668E+00   -4.4176708089E+00   -4.4088177866E+00
   -4.4000001296E+00   -4.3912176749E+00   -4.3824702213E+00   -4.3737575609E+00
   -4.3650794862E+00   -4.3564357893E+00   -4.3478262108E+00   -4.3392505977E+00
   -4.3307087577E+00   -4.3222004926E+00   -4.3137256045E+00   -4.3052838953E+00
   -4.2968751196E+00   -4.2884991254E+00   -4.2801557329E+00   -4.2718447532E+00
   -4.2635659975E+00   -4.2553192771E+00   -4.2471043640E+00   -4.2389210984E+00
   -4.2307693165E+00   -4.2226488383E+00   -4.2145594838E+00   -4.2065010729E+00
   -4.1984733984E+00   -4.1904762847E+00   -4.1825095871E+00   -4.1745731339E+00
   -4.1666667536E+00   -4.1587902745E+00   -4.1509435132E+00   -4.1431262707E+00
   -4.1353384242E+00   -4.1275798099E+00   -4.1198502644E+00   -4.1121496240E+00
   -4.1044777250E+00   -4.0968343597E+00   -4.0892194079E+00   -4.0816327208E+00
   -4.0740741423E+00   -4.0665435164E+00   -4.0590406871E+00   -4.0515654768E+00
   -4.0441177254E+00   -4.0366973128E+00   -4.0293040903E+00   -4.0219379092E+00
   -4.0145986208E+00   -4.0072860764E+00   -4.0000000825E+00   -3.9927405372E+00
   -3.9855073028E+00   -3.9783002375E+00   -3.9711191995E+00   -3.9639640470E+00
   -3.9568346222E+00   -3.9497307693E+00   -3.9426523852E+00   -3.9355993345E+00
   -3.9285714822E+00   -3.9215686930E+00   -3.9145908318E+00   -3.9076377324E+00
   -3.9007092786E+00   -3.8938053575E+00   -3.8869258402E+00   -3.8800705978E+00
   -3.8732395014E+00   -3.8664324222E+00   -3.8596491897E+00   -3.8528897179E+00
   -3.8461538879E+00   -3.8394415767E+00   -3.8327526616E+00   -3.8260870197E+00
   -3.8194445241E+00   -3.8128250158E+00   -3.8062284180E+00   -3.7996546136E+00
   -3.7931034854E+00   -3.7865749162E+00   -3.7800687890E+00   -3.7735849788E+00
   -3.7671233412E+00   -3.7606838002E+00   -3.7542662442E+00   -3.7478705615E+00
   -3.7414966404E+00   -3.7351443691E+00   -3.7288136282E+00   -3.7225042799E+00
   -3.7162162523E+00   -3.7099494390E+00   -3.7037037335E+00   -3.6974790292E+00
   -3.6912752197E+00   -3.6850921941E+00   -3.6789298138E+00   -3.6727880140E+00
   -3.6666666933E+00   -3.6605657501E+00
  </PP_LOCAL>
 <PP_NONLOCAL>
   <PP_BETA.1
       type="real"
       size=" 602"
       columns="4"
       index="1"
       angular_momentum="0"
       cutoff_radius_index=" 246"
       cutoff_radius="    2.4500000000E+00" >
    0.0000000000E+00    8.1959788337E-02    1.6389680452E-01    2.4578292762E-01
    3.2757945385E-01    4.0923209012E-01    4.9066628384E-01    5.7178299213E-01
    6.5245498564E-01    7.3252377312E-01    8.1179722184E-01    8.9004793688E-01
    9.6701244883E-01    1.0423912454E+00    1.1158496674E+00    1.1870196733E+00
    1.2555024628E+00    1.3208719323E+00    1.3826789204E+00    1.4404561895E+00
    1.4937240648E+00    1.5419966682E+00    1.5847886227E+00    1.6216221501E+00
    1.6520344202E+00    1.6755850973E+00    1.6918638179E+00    1.7004976921E+00
    1.7011584600E+00    1.6935693577E+00    1.6775114916E+00    1.6528296167E+00
    1.6194371715E+00    1.5773206519E+00    1.5265428914E+00    1.4672455267E+00
    1.3996503949E+00    1.3240598869E+00    1.2408561029E+00    1.1504990593E+00
    1.0535236873E+00    9.5053575514E-01    8.4220679309E-01    7.2926802100E-01
    6.1250336841E-01    4.9274167614E-01    3.7084818278E-01    2.4771546294E-01
    1.2425386707E-01    1.3813194463E-03   -1.1998657264E-01   -2.3894639470E-01
   -3.5461775436E-01   -4.6615303210E-01   -5.7274544611E-01   -6.7364109027E-01
   -7.6814360571E-01   -8.5562532978E-01   -9.3553062351E-01   -1.0073854605E+00
   -1.0707974255E+00   -1.1254649411E+00   -1.1711748262E+00   -1.2078060192E+00
   -1.2353302905E+00   -1.2538089488E+00   -1.2633921704E+00   -1.2643161462E+00
   -1.2568972238E+00   -1.2415270112E+00   -1.2186667307E+00   -1.1888397354E+00
   -1.1526235486E+00   -1.1106417836E+00   -1.0635554309E+00   -1.0120542028E+00
   -9.5684640407E-01   -8.9865036693E-01   -8.3818527115E-01   -7.7616221762E-01
   -7.1327568510E-01   -6.5019544375E-01   -5.8755902571E-01   -5.2596484036E-01
   -4.6596600774E-01   -4.0806496843E-01   -3.5270891279E-01   -3.0028605589E-01
   -2.5112276889E-01   -2.0548156076E-01   -1.6355988888E-01   -1.2548976165E-01
   -9.1338081356E-02   -6.1107635535E-02   -3.4738766420E-02   -1.2113182579E-02
    6.9366425281E-03    2.2612724892E-02    3.5145144523E-02    4.4786293794E-02