-2.398387299999999911e+01
-2.397418889000000064e+01
-2.396026231000000095e+01
-2.399110662000000005e+01
-2.396086256999999975e+01
-2.389553645999999887e+01
-2.394898295000000132e+01
-2.398736562999999933e+01
-2.396826160999999900e+01
-2.397664482999999791e+01
-2.398105613999999974e+01
-2.397253750000000139e+01
-2.398310250000000110e+01
-2.394206926999999752e+01
-2.399331722999999883e+01
-2.398308636999999877e+01
-2.399387696999999875e+01
-2.398232953000000123e+01
-2.395283084999999801e+01
-2.400092814000000274e+01
-2.399779957999999880e+01
-2.397711394999999968e+01
-2.398862862000000007e+01
-2.396050018000000037e+01
-2.395921419000000085e+01
-2.393770141000000251e+01
-2.398122025999999707e+01
-2.399409419999999926e+01
-2.399436507000000063e+01
-2.398695761999999831e+01
-2.399623232999999800e+01
-2.399537828999999789e+01
-2.399054171999999951e+01
-2.398961956000000129e+01
-2.397038871999999898e+01
-2.392262822999999727e+01
-2.395102384999999856e+01
-2.398236019000000141e+01
-2.396346589000000193e+01
-2.393011727999999749e+01
-2.399504158999999959e+01
-2.398171479000000161e+01
-2.399980081999999726e+01
-2.396369805999999869e+01
-2.396288334999999847e+01
-2.398143272000000081e+01
-2.398153175000000203e+01
-2.398838551000000052e+01
-2.398663295000000062e+01
-2.397166956999999954e+01
-2.390497549999999904e+01
-2.397889756000000006e+01
-2.396083550999999900e+01
-2.395175662000000116e+01
-2.399976774000000290e+01
-2.397095634999999803e+01
-2.397822548999999981e+01
-2.399909101000000078e+01
-2.391361536999999871e+01
-2.399188928000000232e+01
-2.396212955000000022e+01
-2.399124936000000119e+01
-2.398127385000000089e+01
-2.398255769000000015e+01
-2.399380831000000214e+01
-2.394026095000000254e+01
-2.398802357000000285e+01
-2.394020488999999685e+01
-2.395807767000000155e+01
-2.398910253000000026e+01
-2.396798216000000181e+01
-2.395672841000000020e+01
-2.397203468000000015e+01
-2.398084303000000261e+01
-2.396893872000000059e+01
-2.399353720000000223e+01
-2.398236969999999957e+01
-2.398525924999999859e+01
-2.400085407999999632e+01
-2.398447099999999921e+01
-2.391284069000000301e+01
-2.398757988999999924e+01
-2.399164947999999953e+01
-2.398445971000000299e+01
-2.396687839999999881e+01
-2.396940443000000087e+01
-2.398818272000000107e+01
-2.399344344999999734e+01
-2.399669575000000066e+01
-2.399390095999999772e+01
-2.397977975999999956e+01
-2.400103209000000248e+01
-2.397450999000000138e+01
-2.398881988999999848e+01
-2.395872864000000391e+01
-2.396703152999999986e+01
-2.398384802999999721e+01
-2.398179745999999923e+01
-2.396751788999999988e+01
-2.398391703000000064e+01
-2.398858725000000192e+01
-2.397697368000000040e+01
-2.397734123999999767e+01
-2.399042996000000016e+01
-2.396303818999999891e+01
-2.397737890000000149e+01
-2.399453510000000023e+01
-2.396785608000000067e+01
-2.398642478999999739e+01
-2.399309504000000004e+01
-2.397179368999999838e+01
-2.398863200000000262e+01
-2.397749032000000113e+01
-2.396521804999999716e+01
-2.396137063999999839e+01
-2.397971828000000016e+01
-2.399180605000000099e+01
-2.393410171999999747e+01
-2.397025225000000148e+01
-2.398608541000000116e+01
-2.395573043000000268e+01
-2.395687862999999851e+01
-2.400162062000000063e+01
-2.396990066000000041e+01
-2.398588413999999602e+01
-2.397046415999999880e+01
-2.398434722999999735e+01
-2.398575479999999871e+01
-2.397562526999999832e+01
-2.399335261000000230e+01
-2.398230530000000016e+01
-2.398324661999999918e+01
-2.393985492000000193e+01
-2.399716431999999955e+01
-2.392825821999999647e+01
-2.389228693999999820e+01
-2.399642353000000128e+01
-2.399530457000000183e+01
-2.398548970999999952e+01
-2.396578738000000186e+01
-2.397908439000000058e+01
-2.398536275000000018e+01
-2.397715381999999806e+01
-2.399036671999999726e+01
-2.396160674000000057e+01
-2.399115290000000300e+01
-2.399869065000000035e+01
-2.399166091000000023e+01
-2.394220666999999736e+01
-2.398501111999999935e+01
-2.399901879999999821e+01
-2.397137431000000163e+01
-2.394639079000000237e+01
-2.396850178999999770e+01
-2.397030491999999668e+01
-2.398914682000000198e+01
-2.397356991000000193e+01
-2.397051165000000239e+01
-2.398279434999999893e+01
-2.399170557000000059e+01
-2.397880371999999838e+01
-2.393234514999999973e+01
-2.395542168000000061e+01
-2.395676382999999987e+01
-2.398745551000000376e+01
-2.396965643999999784e+01
-2.397287958999999802e+01
-2.399753308000000374e+01
-2.397839998999999978e+01
-2.397127395000000050e+01
-2.397960235000000040e+01
-2.398108409000000307e+01
-2.399440068000000181e+01
-2.399373666999999699e+01
-2.392649039000000144e+01
-2.398775495999999663e+01
-2.396435909000000208e+01
-2.396409150000000210e+01
-2.399442288999999917e+01
-2.398598735000000204e+01
-2.395734696999999969e+01
-2.398775889999999933e+01
-2.399209497999999741e+01
-2.399044677999999919e+01
-2.397258658000000153e+01
-2.399416351999999719e+01
-2.399792468999999784e+01
-2.396419245000000231e+01
-2.395496896000000220e+01
-2.398625576000000237e+01
-2.398497583999999705e+01
-2.395817489000000222e+01
-2.397910891000000078e+01
-2.397305044999999879e+01
-2.396972594000000356e+01
-2.400233207999999863e+01
-2.397852246999999792e+01
-2.392580317000000178e+01
-2.395010179999999878e+01
-2.399072610000000338e+01
-2.397759117000000018e+01
-2.399419508999999806e+01
-2.405051021999999961e+01
-2.398449783999999951e+01
-2.398336528000000101e+01
-2.396287995999999865e+01
-2.398965244999999769e+01
-2.400126623999999964e+01
-2.399433033999999765e+01
-2.395013308999999779e+01
-2.390260546000000019e+01
-2.395622433000000129e+01
-2.396948224999999866e+01
-2.398642324000000059e+01
-2.398531554999999926e+01
-2.393911933000000047e+01
-2.399121152999999751e+01
-2.398459399000000047e+01
-2.398431249000000065e+01
-2.396384588000000093e+01
-2.398235228000000063e+01
-2.398650171999999969e+01
-2.396844360999999779e+01
-2.397394004000000223e+01
-2.396942999999999913e+01
-2.395965127000000194e+01
-2.396618300000000090e+01
-2.398799677999999957e+01
-2.399490044999999938e+01
-2.393816796999999852e+01
-2.398514533999999898e+01
-2.398218867000000287e+01
-2.396420829000000197e+01
-2.399111957000000217e+01
-2.394619297000000202e+01
-2.400007161999999994e+01
-2.395012143999999665e+01
-2.398668280999999780e+01
-2.398651131999999819e+01
-2.396352501999999873e+01
-2.399564790999999886e+01
-2.395330813000000347e+01
-2.397828175000000073e+01
-2.396879518000000076e+01
-2.398493783999999707e+01
-2.393566520999999980e+01
-2.396851836999999819e+01
-2.397634863000000038e+01
-2.398496209999999706e+01
-2.397670447999999865e+01
-2.396751710999999929e+01
-2.398132108000000073e+01
-2.398479606000000075e+01
-2.398530912000000015e+01
-2.399105055000000064e+01
-2.399220112000000071e+01
-2.395568976999999933e+01
-2.398366260999999966e+01
-2.396327691999999843e+01
-2.399245228999999924e+01
-2.398798596999999688e+01
-2.397939308999999852e+01
-2.397695274999999882e+01
-2.397074045000000098e+01
-2.395989012999999801e+01
-2.399156267000000042e+01
-2.396990029999999905e+01
-2.395458066999999858e+01
-2.397561907000000048e+01
-2.399461586999999696e+01
-2.394730816999999945e+01
-2.399769780999999824e+01
-2.398204313000000099e+01
-2.396506152000000256e+01
-2.397651674000000099e+01
-2.398625022000000229e+01
-2.399162710000000232e+01
-2.398207836000000270e+01
-2.397255570000000091e+01
-2.395401500000000183e+01
-2.397174498000000042e+01
-2.399335998000000103e+01
-2.393912007000000131e+01
-2.398055639999999755e+01
-2.398319294999999940e+01
-2.397994005999999700e+01
-2.398148079999999993e+01
-2.395697767000000056e+01
-2.398624239000000102e+01
-2.398991817000000282e+01
-2.397415618000000137e+01
-2.391679047999999952e+01
-2.399830632000000108e+01
-2.399197689000000366e+01
-2.398326870000000000e+01
-2.397758195000000114e+01
-2.393926292999999816e+01
-2.399446966000000003e+01
-2.398296436999999770e+01
-2.397633927999999770e+01
