9.612400000000000111e-02 2.859559999999999880e-01 1.757579999999999976e-01 -6.522369999999999557e-01 2.290100000000000122e-02 2.854059999999999930e-01 4.434719999999999773e-01 6.486859999999999848e-01 -7.369599999999999762e-02 -2.118659999999999988e-01 -5.937100000000000016e-02 2.720069999999999988e-01 3.234349999999999725e-01 -8.977060000000000040e-01 -6.588950000000000085e-01
4.686200000000000088e-02 -3.797619999999999885e-01 1.484930000000000139e-01 2.900880000000000125e-01 -1.873060000000000003e-01 6.787999999999999590e-02 1.195599999999999961e-02 -2.115019999999999956e-01 2.407620000000000038e-01 2.040230000000000099e-01 -1.583730000000000138e-01 -6.224500000000000172e-02 -5.530859999999999665e-01 9.371639999999999970e-01 -3.952240000000000197e-01
-4.641600000000000170e-01 5.429910000000000014e-01 4.420729999999999937e-01 -1.992140000000000022e-01 1.637879999999999892e-01 -3.010720000000000063e-01 4.710239999999999982e-01 1.125537999999999927e+00 -1.150299999999999934e-02 2.016789999999999972e-01 -1.074859999999999982e-01 4.157669999999999977e-01 -9.391999999999999307e-03 -1.725063999999999931e+00 -5.451000000000000290e-01
1.715170000000000028e-01 -4.464460000000000095e-01 -3.406080000000000219e-01 -8.576100000000000390e-02 -2.640719999999999734e-01 1.099480000000000041e-01 3.273409999999999931e-01 2.165749999999999897e-01 1.173089999999999966e-01 -1.183929999999999982e-01 1.263930000000000053e-01 -3.560289999999999844e-01 -2.948640000000000150e-01 3.676209999999999756e-01 4.693260000000000209e-01
1.046900000000000053e-01 3.134640000000000204e-01 3.200970000000000204e-01 9.383240000000000469e-01 -2.107729999999999881e-01 3.537270000000000136e-01 -3.292240000000000166e-01 -1.058685000000000098e+00 -1.216020000000000018e-01 -1.338620000000000088e-01 -4.270000000000000358e-03 1.243360000000000021e-01 -5.802370000000000028e-01 9.606890000000000152e-01 -6.760789999999999855e-01
4.050560000000000271e-01 -5.377950000000000230e-01 -1.164130000000000109e+00 -9.463240000000000540e-01 -1.484300000000000029e-02 -5.693800000000000250e-02 1.171959999999999891e+00 1.677105999999999986e+00 -9.296000000000000096e-02 1.357190000000000063e-01 -3.672469999999999901e-01 9.797000000000000153e-01 -7.656619999999999537e-01 -7.497270000000000323e-01 3.272090000000000276e-01
-5.889500000000000290e-02 3.353180000000000049e-01 7.104059999999999819e-01 6.273739999999999872e-01 -7.561800000000000466e-02 2.222929999999999906e-01 -4.628479999999999817e-01 -9.981060000000000487e-01 3.371890000000000165e-01 1.792120000000000102e-01 -1.344399999999999935e-02 3.140789999999999971e-01 -2.841679999999999762e-01 7.507690000000000197e-01 -1.584989999999999899e+00
1.327909999999999924e-01 -1.430279999999999885e-01 3.792960000000000220e-01 -2.541919999999999735e-01 6.475300000000000500e-02 1.146350000000000008e-01 1.150859999999999939e-01 4.200909999999999922e-01 -3.543700000000000322e-02 -9.430299999999999794e-02 -1.101690000000000030e-01 -5.628720000000000390e-01 1.003050000000000053e-01 -2.315939999999999943e-01 1.046409999999999979e-01
2.205749999999999933e-01 -4.951550000000000118e-01 -9.731619999999999715e-01 -5.480979999999999741e-01 -4.574099999999999694e-02 -8.110799999999999954e-02 1.738319999999999865e-01 1.722339999999999982e-01 9.039999999999999425e-02 8.544999999999999818e-02 -1.678499999999999992e-01 7.309539999999999926e-01 6.805899999999999450e-02 5.365410000000000457e-01 2.330490000000000061e-01
1.943699999999999872e-01 2.382680000000000076e-01 6.413199999999999457e-02 -4.783459999999999934e-01 -2.383100000000000149e-02 1.104259999999999964e-01 4.192480000000000095e-01 -2.759100000000000094e-02 8.251200000000000201e-02 3.509700000000000319e-02 4.350310000000000010e-01 -2.452689999999999870e-01 -1.703349999999999864e-01 -6.220679999999999543e-01 -1.207500000000000066e-02
-4.690389999999999837e-01 -2.079809999999999992e-01 6.142299999999999843e-02 -3.587130000000000041e-01 -6.529000000000000081e-02 -2.249240000000000128e-01 -9.235999999999999766e-02 2.018929999999999891e-01 2.626979999999999871e-01 -4.553499999999999909e-02 6.329400000000000304e-02 -1.633610000000000062e-01 9.669180000000000552e-01 9.936999999999999653e-03 6.131899999999999851e-02
3.485619999999999830e-01 -4.539810000000000234e-01 -7.042500000000000149e-02 -9.361110000000000264e-01 1.729350000000000054e-01 8.435499999999999943e-02 1.106200000000000065e-02 9.994999999999999718e-02 -3.118599999999999844e-02 2.095400000000000040e-02 -3.362870000000000026e-01 -3.498799999999999827e-02 5.555970000000000075e-01 5.159340000000000037e-01 5.363400000000000112e-02
-4.383340000000000014e-01 3.161019999999999941e-01 7.827150000000000496e-01 5.856689999999999952e-01 -1.207820000000000005e-01 -7.170999999999999597e-02 -1.461979999999999946e-01 -2.361399999999999888e-01 6.194000000000000200e-02 1.437910000000000021e-01 -2.882080000000000197e-01 3.497819999999999818e-01 -1.440559999999999896e-01 3.287610000000000254e-01 -1.122332000000000107e+00
-1.029980000000000062e-01 4.846199999999999952e-01 8.782919999999999616e-01 9.019150000000000222e-01 -1.260489999999999944e-01 8.451100000000000279e-02 -7.166699999999999460e-02 -5.051900000000000279e-01 2.633039999999999825e-01 -1.052329999999999932e-01 5.919039999999999857e-01 -8.676739999999999453e-01 -6.363039999999999807e-01 -4.351510000000000100e-01 -3.452819999999999778e-01
-1.516099999999999948e-01 3.056059999999999888e-01 -9.842700000000000060e-02 -2.045240000000000113e-01 8.945999999999999786e-02 -5.169100000000000084e-02 -2.010939999999999950e-01 -1.667720000000000036e-01 -1.181989999999999985e-01 -2.204700000000000062e-02 -1.140010000000000051e-01 5.406530000000000502e-01 5.794089999999999518e-01 -1.144239999999999979e-01 -2.720699999999999785e-01
-1.113999999999999973e-03 2.660759999999999792e-01 9.440400000000000180e-02 3.221799999999999664e-02 -2.660420000000000007e-01 1.796139999999999959e-01 6.624900000000000233e-01 6.530829999999999691e-01 5.890000000000000270e-03 -2.002649999999999986e-01 2.182050000000000101e-01 -3.678599999999999925e-02 -4.925030000000000241e-01 -8.702860000000000040e-01 -2.427020000000000011e-01
-6.060399999999999815e-02 -2.054169999999999885e-01 -5.486130000000000173e-01 -3.002449999999999841e-01 2.829600000000000171e-02 -1.212389999999999995e-01 7.567200000000000315e-02 1.663000000000000034e-01 1.382039999999999935e-01 4.437399999999999678e-02 8.255600000000000438e-02 3.265449999999999742e-01 2.407390000000000085e-01 -7.161599999999999910e-02 2.051850000000000063e-01
-2.798950000000000049e-01 1.208110000000000017e-01 1.167160000000000003e-01 -5.762429999999999497e-01 -5.312499999999999861e-02 -1.513390000000000013e-01 -5.786000000000000344e-03 7.616299999999999459e-02 -2.989299999999999943e-02 1.849490000000000023e-01 -4.854280000000000261e-01 7.850099999999999856e-01 6.771340000000000137e-01 3.415560000000000263e-01 -7.202460000000000528e-01
2.810190000000000188e-01 -3.085910000000000042e-01 -3.591840000000000033e-01 -1.014156999999999975e+00 -7.006999999999999340e-02 8.449299999999999866e-02 3.279210000000000180e-01 2.274839999999999918e-01 -7.249999999999999500e-04 3.169040000000000190e-01 -8.294540000000000246e-01 1.185116000000000058e+00 8.821800000000000475e-02 9.804110000000000325e-01 -9.093290000000000539e-01
-1.769429999999999892e-01 2.241219999999999879e-01 1.627429999999999988e-01 3.774330000000000185e-01 -1.445889999999999953e-01 -6.550000000000000266e-02 -3.473199999999999898e-02 -3.407640000000000113e-01 1.276960000000000039e-01 9.268899999999999362e-02 1.106440000000000062e-01 1.572510000000000019e-01 -2.584670000000000023e-01 1.503140000000000032e-01 -3.818309999999999760e-01
-7.112799999999999678e-02 1.346130000000000104e-01 -3.407299999999999912e-02 -1.828859999999999930e-01 -3.299529999999999963e-01 3.854599999999999693e-02 3.817010000000000125e-01 4.854999999999999941e-03 5.924700000000000105e-02 -1.689430000000000098e-01 4.313910000000000244e-01 -3.847709999999999742e-01 4.143000000000000155e-02 -2.412459999999999882e-01 3.208610000000000073e-01
3.410099999999999937e-02 -4.188769999999999993e-01 -6.822449999999999903e-01 -4.828160000000000229e-01 2.546619999999999995e-01 -1.949200000000000099e-01 -3.208599999999999786e-01 -3.379200000000000259e-02 2.901300000000000059e-02 1.934029999999999916e-01 -3.328340000000000187e-01 6.917769999999999753e-01 5.761399999999999855e-01 5.313200000000000145e-01 1.566269999999999885e-01
2.085599999999999954e-01 -4.706670000000000020e-01 -4.535469999999999779e-01 5.981349999999999723e-01 8.506700000000000372e-02 1.283350000000000046e-01 -2.847049999999999859e-01 4.200999999999999873e-02 -3.027699999999999836e-02 -4.364999999999999956e-03 -3.143549999999999955e-01 1.375599999999999878e-01 -5.179019999999999735e-01 6.581139999999999768e-01 2.172489999999999977e-01
4.473989999999999911e-01 -7.345190000000000330e-01 -8.454279999999999573e-01 -8.670820000000000194e-01 -3.098100000000000159e-02 -8.932400000000000062e-02 3.166689999999999783e-01 4.224470000000000169e-01 1.132319999999999993e-01 1.316819999999999935e-01 -3.273659999999999903e-01 5.328380000000000338e-01 -2.844000000000000000e-02 6.704999999999999849e-01 2.887489999999999779e-01
4.871170000000000222e-01 -5.922800000000000287e-01 -5.143159999999999954e-01 -1.169732999999999912e+00 3.596139999999999892e-01 1.929900000000000018e-02 2.322990000000000055e-01 8.339020000000000321e-01 3.638700000000000268e-02 6.956600000000000283e-02 -7.258900000000000075e-02 -3.517839999999999856e-01 3.821820000000000217e-01 -5.288829999999999920e-01 8.105909999999999505e-01
-5.177690000000000348e-01 8.078940000000000010e-01 9.100620000000000376e-01 1.380240000000000078e-01 -2.386639999999999873e-01 -1.222459999999999936e-01 -3.361359999999999904e-01 -1.100324000000000080e+00 9.834400000000000086e-02 -4.940599999999999853e-02 4.410120000000000151e-01 -5.137420000000000320e-01 7.645750000000000046e-01 9.704200000000000326e-02 -3.706949999999999967e-01
3.681240000000000068e-01 -5.097059999999999924e-01 -3.877160000000000051e-01 -4.882920000000000038e-01 9.212299999999999656e-02 1.064999999999999974e-02 3.413900000000000268e-02 -1.004999999999999991e-02 -8.151799999999999324e-02 1.197669999999999985e-01 -3.265509999999999802e-01 1.304300000000000077e-02 -3.329000000000000015e-02 7.539730000000000043e-01 4.457200000000000051e-01
-1.833110000000000017e-01 8.829000000000000042e-03 2.078810000000000102e-01 4.674440000000000262e-01 -9.561300000000000354e-02 -4.040000000000000080e-04 -2.435400000000000065e-02 -3.134100000000000080e-02 1.369160000000000099e-01 1.123750000000000027e-01 -1.096450000000000063e-01 2.204909999999999926e-01 -3.722570000000000046e-01 2.280089999999999895e-01 -5.658739999999999881e-01
1.056969999999999993e-01 -1.832709999999999895e-01 -7.998199999999999754e-02 5.052299999999999569e-01 -2.536430000000000073e-01 4.222299999999999665e-02 -5.399000000000000327e-02 -4.627839999999999732e-01 -3.739999999999999835e-03 8.825900000000000412e-02 -2.277599999999999902e-01 1.629879999999999940e-01 -6.459019999999999762e-01 1.129250000000000087e+00 -1.199680000000000052e-01
4.961499999999999938e-02 -2.461599999999999899e-01 9.541800000000000281e-02 1.360560000000000103e-01 -2.226380000000000026e-01 -5.078599999999999781e-02 3.683600000000000069e-02 -3.513109999999999844e-01 8.149599999999999900e-02 1.393590000000000106e-01 -1.810130000000000072e-01 -1.138389999999999957e-01 -3.636980000000000213e-01 1.000111999999999890e+00 -1.177699999999999927e-02
1.882149999999999934e-01 -3.466980000000000062e-01 -1.118590000000000001e-01 5.292580000000000062e-01 1.467600000000000016e-01 1.016019999999999979e-01 -1.852880000000000082e-01 7.596700000000000674e-02 1.300459999999999949e-01 1.590630000000000099e-01 -1.437869999999999981e-01 1.151110000000000050e-01 -6.913200000000000456e-01 2.678900000000000170e-01 -2.346850000000000047e-01
-1.922879999999999867e-01 3.186900000000000149e-02 1.460059999999999969e-01 -5.640960000000000418e-01 3.542000000000000010e-02 -1.112199999999999994e-01 -9.345900000000000041e-02 4.689200000000000312e-02 -3.983799999999999841e-02 6.100999999999999653e-03 -1.807469999999999910e-01 9.185699999999999421e-02 8.436249999999999583e-01 6.647100000000000231e-02 -8.691599999999999326e-02
-4.078099999999999781e-02 -3.977330000000000032e-01 -2.006229999999999958e-01 1.807380000000000098e-01 -2.876670000000000060e-01 -1.083360000000000017e-01 2.243209999999999926e-01 -8.616999999999999660e-03 1.573420000000000096e-01 2.092209999999999903e-01 -2.583079999999999821e-01 2.259770000000000112e-01 -5.734059999999999713e-01 9.525059999999999638e-01 -7.451499999999999790e-02
1.663159999999999916e-01 -4.572220000000000173e-01 -6.561230000000000118e-01 -4.635110000000000063e-01 1.004590000000000066e-01 -1.251049999999999940e-01 -2.955320000000000169e-01 -2.635100000000000220e-01 -1.561609999999999943e-01 -1.872300000000000006e-02 -2.273330000000000073e-01 7.598499999999999699e-02 6.115159999999999485e-01 8.476540000000000186e-01 8.613269999999999538e-01
4.179820000000000202e-01 -3.083330000000000237e-01 -5.201989999999999670e-01 -7.269959999999999756e-01 1.852840000000000042e-01 2.154439999999999966e-01 3.494889999999999941e-01 3.210210000000000008e-01 1.023820000000000008e-01 1.091609999999999941e-01 -1.283590000000000009e-01 6.895559999999999468e-01 -1.493990000000000040e-01 -6.988400000000000167e-02 -4.873979999999999979e-01
-2.159330000000000138e-01 2.950470000000000037e-01 4.477800000000000114e-01 1.119391000000000025e+00 8.754599999999999882e-02 -2.201699999999999838e-02 -1.017028999999999961e+00 -1.194161999999999946e+00 -2.046399999999999955e-02 -1.273749999999999882e-01 2.581680000000000086e-01 -5.270169999999999577e-01 2.410730000000000095e-01 5.532869999999999733e-01 1.215819999999999956e-01
1.298700000000000132e-01 -1.295179999999999942e-01 -7.658279999999999532e-01 8.000810000000000421e-01 -1.455319999999999947e-01 1.383500000000000008e-02 -4.572479999999999878e-01 -9.447370000000000489e-01 7.998999999999999166e-03 1.026299999999999990e-01 -1.117250000000000049e-01 8.582999999999999519e-01 -5.762270000000000447e-01 1.331855000000000011e+00 -1.142100000000000060e-01
-9.895500000000000129e-02 3.089930000000000176e-01 1.545910000000000062e-01 -8.323500000000000343e-02 2.237629999999999897e-01 -9.483000000000000110e-03 -3.221990000000000132e-01 -1.121430000000000066e-01 -1.216249999999999970e-01 9.087900000000000145e-02 -3.162409999999999943e-01 6.631280000000000507e-01 4.135579999999999812e-01 -1.043800000000000006e-01 -6.867250000000000298e-01
3.232920000000000238e-01 -6.150149999999999784e-01 -5.017540000000000333e-01 -6.021769999999999623e-01 1.772179999999999866e-01 -9.536699999999999344e-02 3.825589999999999824e-01 5.680819999999999759e-01 -1.161599999999999994e-01 1.915419999999999900e-01 -5.894580000000000375e-01 5.755289999999999573e-01 -2.957500000000000129e-01 4.607609999999999761e-01 1.395720000000000016e-01
6.404499999999999638e-01 -8.671050000000000146e-01 -9.105180000000000495e-01 -4.651959999999999984e-01 1.718919999999999892e-01 2.320830000000000115e-01 5.030320000000000347e-01 1.172887000000000013e+00 -2.004660000000000053e-01 -4.856000000000000073e-03 -6.873399999999999510e-01 7.441609999999999614e-01 -6.735679999999999445e-01 2.106949999999999934e-01 1.344849999999999934e-01
1.035240000000000049e-01 -8.694300000000000639e-02 2.870530000000000026e-01 -2.012510000000000132e-01 1.030729999999999980e-01 7.738200000000000633e-02 -3.544109999999999761e-01 -5.484780000000000211e-01 1.032500000000000084e-02 6.542399999999999605e-02 -1.135909999999999975e-01 -1.632570000000000132e-01 3.856919999999999793e-01 6.458770000000000344e-01 -2.115640000000000021e-01
5.172940000000000316e-01 -3.263200000000000128e-02 2.643240000000000034e-01 3.562989999999999768e-01 2.840000000000000163e-02 4.134450000000000069e-01 7.683199999999999752e-02 -3.150410000000000155e-01 3.599100000000000216e-02 2.269300000000000136e-02 3.414400000000000074e-02 -2.745040000000000258e-01 -1.112924999999999942e+00 1.716010000000000035e-01 -4.957590000000000052e-01
3.569979999999999820e-01 -1.133269999999999972e-01 -1.574349999999999916e-01 8.736499999999999821e-02 1.559530000000000083e-01 2.558110000000000106e-01 -1.387579999999999925e-01 7.643300000000000094e-02 -2.909590000000000232e-01 -1.205719999999999986e-01 -4.238120000000000220e-01 2.836449999999999805e-01 -1.843930000000000013e-01 3.041059999999999874e-01 -9.017400000000000415e-02
-5.784310000000000285e-01 3.584729999999999861e-01 1.130250000000000005e-01 7.161950000000000260e-01 1.377100000000000025e-02 -2.639850000000000252e-01 -2.718019999999999881e-01 4.913599999999999912e-02 1.404060000000000030e-01 -4.029200000000000143e-02 3.145950000000000135e-01 6.691500000000000226e-02 1.747900000000000009e-01 -7.358170000000000543e-01 -5.589899999999999730e-02
4.723399999999999821e-02 6.194899999999999851e-01 2.556109999999999771e-01 -1.932899999999999896e-01 4.381000000000000345e-03 1.851780000000000093e-01 1.491400000000000017e-02 -3.333030000000000159e-01 -1.646620000000000028e-01 -4.775400000000000200e-01 7.812149999999999928e-01 -7.532689999999999664e-01 6.084140000000000104e-01 -1.072221000000000091e+00 4.772449999999999748e-01
4.106850000000000223e-01 -5.501359999999999584e-01 -7.113730000000000331e-01 -3.210749999999999993e-01 1.003529999999999978e-01 2.608829999999999760e-01 7.151799999999999824e-02 4.018780000000000130e-01 -8.218300000000000605e-02 -1.912840000000000096e-01 -4.192499999999999699e-02 -9.359299999999999564e-02 3.019499999999999962e-02 8.941000000000000336e-02 6.259000000000000119e-01
4.855099999999999694e-02 -1.021979999999999972e-01 3.249609999999999999e-01 2.507980000000000209e-01 -2.363020000000000120e-01 8.896300000000000041e-02 1.826790000000000080e-01 -1.140369999999999995e-01 1.399239999999999928e-01 4.629400000000000182e-02 2.011400000000000132e-01 -7.262640000000000207e-01 -5.276669999999999972e-01 2.524759999999999782e-01 1.758699999999999986e-01
2.337249999999999883e-01 6.916999999999999538e-02 2.123369999999999980e-01 -5.040320000000000356e-01 1.303690000000000127e-01 1.292600000000000138e-01 7.497199999999999698e-02 1.633189999999999920e-01 -2.789800000000000058e-01 -1.801570000000000116e-01 -6.799700000000000188e-02 -5.218690000000000273e-01 3.783159999999999856e-01 -2.979680000000000106e-01 4.327590000000000048e-01
-2.969720000000000137e-01 1.526150000000000007e-01 -7.685500000000000664e-02 -2.942069999999999963e-01 -1.213100000000000012e-01 -2.245709999999999928e-01 -1.649990000000000068e-01 -5.930389999999999828e-01 1.264540000000000108e-01 2.166150000000000020e-01 -5.387499999999999928e-02 5.860830000000000206e-01 5.394679999999999476e-01 6.154659999999999576e-01 -4.107689999999999952e-01
1.429660000000000097e-01 -6.520569999999999977e-01 -8.805699999999999639e-02 -4.053140000000000076e-01 2.758410000000000029e-01 -3.684300000000000075e-02 6.488700000000000023e-02 6.986189999999999900e-01 2.015290000000000137e-01 2.466150000000000009e-01 -3.631409999999999916e-01 2.819490000000000052e-01 -5.043600000000000166e-02 3.971199999999999730e-02 -3.582580000000000209e-01
-4.886130000000000195e-01 7.393849999999999589e-01 8.474610000000000198e-01 1.209189000000000069e+00 -6.782900000000000040e-02 -9.402900000000000147e-02 -9.152200000000000335e-01 -1.179799999999999960e+00 -1.782400000000000095e-01 -1.760619999999999963e-01 2.145800000000000138e-02 -3.045550000000000201e-01 3.706840000000000135e-01 4.868799999999999795e-01 -2.708530000000000104e-01
-1.197639999999999955e-01 -1.291009999999999935e-01 -3.131550000000000167e-01 -5.811939999999999884e-01 -1.960729999999999973e-01 -9.200899999999999357e-02 5.152860000000000218e-01 6.833650000000000002e-01 1.588789999999999925e-01 1.064709999999999962e-01 6.584800000000000375e-02 4.236280000000000046e-01 7.919800000000000451e-02 -4.246030000000000082e-01 -1.774519999999999986e-01
3.165240000000000276e-01 -1.351509999999999934e-01 -8.234609999999999985e-01 -6.222800000000000553e-01 -2.260799999999999962e-02 1.524320000000000119e-01 3.736789999999999834e-01 1.669789999999999885e-01 -9.107600000000000418e-02 1.005540000000000045e-01 -1.625689999999999913e-01 9.251040000000000374e-01 -1.665010000000000101e-01 1.491810000000000080e-01 -1.628590000000000038e-01
-4.944970000000000199e-01 3.725700000000000123e-01 5.640779999999999683e-01 1.197972000000000037e+00 -1.119750000000000051e-01 -8.726100000000000523e-02 -2.556680000000000064e-01 -2.804399999999999948e-02 6.198300000000000337e-02 -2.018899999999999861e-01 2.844749999999999779e-01 -4.561279999999999779e-01 -2.457139999999999880e-01 -5.170059999999999656e-01 -8.282299999999999385e-02
1.102979999999999933e-01 -5.736600000000000033e-02 2.309190000000000131e-01 2.495519999999999960e-01 2.665509999999999824e-01 6.304800000000000681e-02 -1.770230000000000137e-01 2.756199999999999969e-02 1.375339999999999896e-01 1.171979999999999966e-01 7.948800000000000310e-02 -2.167300000000000060e-01 -2.992349999999999732e-01 -3.167949999999999933e-01 -2.141129999999999978e-01
-2.343240000000000045e-01 3.285969999999999724e-01 -4.795399999999999663e-02 7.822320000000000384e-01 1.802000000000000129e-02 -1.147050000000000014e-01 -5.628069999999999462e-01 -6.728180000000000271e-01 -6.902300000000000102e-02 -1.488750000000000073e-01 2.836980000000000057e-01 -8.672900000000000054e-02 1.640179999999999971e-01 4.247000000000000081e-02 3.178929999999999811e-01
-1.348179999999999934e-01 -2.289219999999999866e-01 -1.194640000000000007e-01 6.330890000000000128e-01 8.185000000000000608e-02 1.559600000000000049e-02 -2.788880000000000248e-01 2.059499999999999942e-01 1.573160000000000114e-01 -1.850910000000000055e-01 2.856270000000000198e-01 -4.185059999999999891e-01 -3.339099999999999707e-02 -3.426810000000000134e-01 3.641099999999999892e-01
-1.801580000000000126e-01 2.805750000000000188e-01 1.777499999999999913e-02 -3.786419999999999786e-01 4.126900000000000013e-02 -6.114599999999999896e-02 1.528039999999999954e-01 3.618919999999999915e-01 -7.915899999999999326e-02 -6.349100000000000577e-02 -3.124899999999999900e-02 3.192360000000000197e-01 4.695829999999999727e-01 -6.514069999999999583e-01 -1.966539999999999955e-01
-9.455800000000000316e-02 3.167280000000000095e-01 7.509959999999999969e-01 1.130444000000000004e+00 -4.762270000000000114e-01 1.711499999999999966e-01 -3.580079999999999929e-01 -1.281517999999999935e+00 2.819960000000000244e-01 1.270189999999999930e-01 2.484949999999999937e-01 -4.847819999999999907e-01 -8.046780000000000044e-01 1.192606999999999973e+00 -7.179339999999999611e-01
2.515290000000000026e-01 1.360689999999999955e-01 -2.687880000000000269e-01 -9.171100000000000085e-02 -2.033409999999999940e-01 1.540100000000000080e-01 2.464669999999999916e-01 -1.635320000000000107e-01 -2.343010000000000093e-01 -1.240610000000000046e-01 -1.957409999999999983e-01 4.189970000000000083e-01 -2.818999999999999839e-01 4.257819999999999938e-01 -7.029699999999999838e-02
4.659090000000000176e-01 -4.807310000000000194e-01 -5.762260000000000160e-01 4.929069999999999840e-01 -1.284540000000000126e-01 2.799780000000000046e-01 -3.799529999999999852e-01 -1.068602000000000052e+00 -1.579900000000000054e-02 -1.218230000000000007e-01 9.495800000000000074e-02 -3.139830000000000121e-01 -4.574369999999999825e-01 1.582859999999999934e+00 6.254150000000000542e-01
-1.388280000000000070e-01 1.582870000000000110e-01 7.245470000000000521e-01 -1.611049999999999982e-01 8.820899999999999574e-02 6.513399999999999745e-02 -3.099020000000000108e-01 -4.787870000000000181e-01 6.510599999999999721e-02 9.073900000000000021e-02 -1.815549999999999942e-01 4.008699999999999763e-02 5.192719999999999558e-01 4.138720000000000176e-01 -8.944490000000000496e-01
-1.118689999999999962e-01 4.823629999999999862e-01 5.136450000000000182e-01 8.181589999999999696e-01 -2.928529999999999744e-01 1.269840000000000135e-01 3.822439999999999727e-01 3.296330000000000093e-01 -1.696449999999999902e-01 -7.447199999999999653e-02 -9.749399999999999733e-02 7.108299999999999341e-02 -1.014119999999999910e+00 -4.219300000000000272e-01 -5.420110000000000205e-01
-1.922659999999999925e-01 3.409130000000000216e-01 -1.414870000000000017e-01 -3.912399999999999906e-02 1.518750000000000100e-01 -2.071530000000000038e-01 -1.625739999999999963e-01 6.825399999999999523e-02 -2.213199999999999890e-01 -1.438810000000000089e-01 2.116000000000000103e-01 -1.164779999999999982e-01 5.377870000000000150e-01 -7.726359999999999895e-01 6.862260000000000026e-01
-2.056560000000000055e-01 1.896239999999999870e-01 -1.357960000000000000e-01 -5.502300000000000246e-02 6.260000000000000373e-04 -1.997170000000000056e-01 2.454629999999999868e-01 3.862849999999999895e-01 5.664299999999999891e-02 -3.150300000000000322e-02 4.680560000000000276e-01 -2.903530000000000277e-01 4.679300000000000126e-02 -1.044972999999999930e+00 5.696210000000000440e-01
7.519900000000000195e-02 -3.677119999999999833e-01 -2.861739999999999839e-01 -1.205184999999999951e+00 1.667379999999999973e-01 -7.737600000000000033e-02 8.589820000000000233e-01 1.240100999999999898e+00 6.637300000000000144e-02 -2.068800000000000153e-02 3.429200000000000303e-02 -1.474499999999999977e-01 2.921699999999999853e-01 -1.073666999999999927e+00 4.451910000000000034e-01
-4.102800000000000197e-02 -1.223039999999999961e-01 -3.727679999999999882e-01 -1.594800000000000037e-02 -3.173759999999999915e-01 4.410599999999999937e-02 5.626499999999999835e-01 5.835669999999999469e-01 3.055099999999999830e-02 -1.660820000000000074e-01 1.466250000000000053e-01 2.467700000000000102e-02 -3.398829999999999907e-01 -2.902219999999999800e-01 2.737080000000000068e-01
4.412320000000000131e-01 -6.741669999999999607e-01 -9.186860000000000026e-01 -8.454519999999999813e-01 1.165759999999999991e-01 6.571299999999999364e-02 5.608410000000000339e-01 1.136303999999999981e+00 3.250100000000000211e-02 5.490500000000000241e-02 -2.875420000000000198e-01 5.432919999999999972e-01 -2.110769999999999869e-01 -2.905240000000000045e-01 2.772580000000000044e-01
3.324989999999999890e-01 -3.849290000000000211e-01 -7.708990000000000009e-01 -6.303790000000000227e-01 -2.137650000000000106e-01 9.008199999999999541e-02 7.017499999999999849e-01 9.606789999999999496e-01 -7.580299999999999538e-02 1.504649999999999876e-01 -3.596659999999999857e-01 7.135029999999999983e-01 -5.549089999999999856e-01 -2.700999999999999842e-03 4.257299999999999973e-02
-2.740879999999999983e-01 -1.674199999999999994e-02 -6.649800000000000155e-02 4.641810000000000103e-01 1.203280000000000044e-01 -2.390770000000000117e-01 -2.945619999999999905e-01 6.484399999999999886e-02 7.527499999999999469e-02 8.038199999999999512e-02 2.903100000000000125e-02 7.595399999999999374e-02 2.456600000000000103e-02 -1.977200000000000069e-01 1.537149999999999905e-01
1.472829999999999973e-01 1.281809999999999894e-01 1.411870000000000069e-01 3.659839999999999760e-01 -4.681049999999999933e-01 1.685609999999999886e-01 4.492149999999999754e-01 6.812000000000000347e-03 -1.476119999999999932e-01 -3.122420000000000195e-01 4.518719999999999959e-01 -8.378499999999999837e-01 -6.528049999999999686e-01 -1.209910000000000013e-01 6.756079999999999863e-01
-9.611999999999999711e-02 4.142040000000000166e-01 7.235840000000000050e-01 1.027049000000000101e+00 4.036900000000000210e-02 -7.316799999999999693e-02 -3.040669999999999762e-01 -4.024619999999999864e-01 -2.496700000000000030e-01 -3.414500000000000174e-02 -6.047799999999999704e-02 -6.334999999999999520e-01 -5.926329999999999654e-01 8.623999999999999722e-03 2.324100000000000055e-01
-3.958740000000000037e-01 3.481009999999999938e-01 2.771199999999999775e-01 1.296049999999999980e-01 1.606229999999999880e-01 -3.321120000000000183e-01 -2.375510000000000121e-01 -3.567969999999999753e-01 2.896340000000000026e-01 4.300910000000000011e-01 5.580399999999999944e-02 5.706210000000000448e-01 7.388699999999999435e-02 -2.092320000000000013e-01 -8.039809999999999457e-01
-3.403559999999999919e-01 6.223239999999999883e-01 5.763599999999999834e-01 5.084370000000000278e-01 2.754900000000000057e-02 2.152300000000000046e-02 -9.552099999999999480e-02 1.498909999999999965e-01 -7.549799999999999567e-02 -2.707550000000000234e-01 3.008719999999999728e-01 -3.475119999999999876e-01 1.985020000000000118e-01 -1.100538000000000016e+00 -1.751659999999999884e-01
2.806640000000000246e-01 6.414000000000000257e-02 -5.277519999999999989e-01 -7.636190000000000477e-01 -1.000970000000000054e-01 -2.899300000000000141e-02 5.697759999999999492e-01 2.573779999999999957e-01 -2.683630000000000182e-01 -4.839700000000000252e-02 -1.487800000000000060e-02 2.576089999999999769e-01 -3.783399999999999958e-02 -2.070240000000000136e-01 5.673369999999999802e-01
1.132869999999999988e-01 -1.451300000000000090e-01 2.841960000000000042e-01 -4.317050000000000054e-01 1.294069999999999943e-01 8.999500000000000555e-02 -1.301680000000000059e-01 -1.090519999999999962e-01 1.222609999999999947e-01 1.203469999999999956e-01 -2.280729999999999980e-01 1.008399999999999991e-01 3.284340000000000037e-01 3.533279999999999754e-01 -5.971140000000000336e-01
-2.153150000000000064e-01 1.915830000000000033e-01 -2.008729999999999960e-01 -4.926079999999999903e-01 1.269099999999999950e-01 -3.006260000000000043e-01 1.429099999999999988e-02 1.459040000000000059e-01 -5.353399999999999825e-02 2.502759999999999985e-01 -2.468789999999999873e-01 7.848169999999999868e-01 4.432249999999999801e-01 -2.176659999999999984e-01 -2.298550000000000038e-01
-3.255419999999999980e-01 8.957199999999999884e-02 -1.114030000000000020e-01 3.268139999999999934e-01 1.226000000000000093e-03 -2.771239999999999815e-01 1.779439999999999911e-01 5.822669999999999790e-01 8.361300000000000676e-02 -3.590100000000000235e-02 4.019280000000000075e-01 -3.173819999999999975e-01 -1.433429999999999982e-01 -1.075085000000000068e+00 6.220560000000000533e-01