5.912519999999999953e+01 1.685679999999999978e+01 6.868049999999999500e+01 5.836990000000000123e+01 1.703419999999999845e+01 6.946429999999999438e+01 5.614489999999999981e+01 1.641069999999999851e+01 6.747199999999999420e+01 5.505250000000000199e+01 1.602680000000000149e+01 6.735299999999999443e+01 6.128099999999999881e+01 1.271950000000000003e+01 6.823779999999999291e+01 6.183350000000000080e+01 1.213719999999999999e+01 6.895610000000000639e+01
