3.015510878670323303e-01 -5.167768657375076957e-02 -2.477508011919937747e-01 -2.096881354239498174e-01 7.214264098797897040e-02 3.102854859823586109e-01 -7.025584449041401669e+00 -2.456540869594735721e+00 -8.223007196936260588e-01 6.933844189651317436e+00 2.436708458032533997e+00 7.597273140864515550e-01 -2.503460369420767329e+00 2.635867616608301045e+00 -3.252968061816973844e+00 2.503337676367768605e+00 -2.636500159460327453e+00 3.253006834055851115e+00
