2.609959999999999880e+01 3.495759999999999934e+01 1.282920000000000016e+02 2.580819999999999936e+01 3.390440000000000254e+01 1.280579999999999927e+02 2.643080000000000140e+01 3.468900000000000006e+01 1.319910000000000139e+02 2.735689999999999955e+01 3.517819999999999681e+01 1.316560000000000059e+02
1.106830000000000069e+02 3.651760000000000161e+01 5.425070000000000192e+01 1.115190000000000055e+02 3.668010000000000304e+01 5.258529999999999660e+01 1.115990000000000038e+02 3.573120000000000118e+01 5.354449999999999932e+01 1.111919999999999931e+02 3.666159999999999997e+01 5.532099999999999795e+01
4.380360000000000298e+01 7.908740000000000236e+01 1.257600000000000051e+02 4.321710000000000207e+01 7.890130000000000621e+01 1.232630000000000052e+02 4.437709999999999866e+01 7.966939999999999600e+01 1.233670000000000044e+02 4.315979999999999706e+01 7.960509999999999309e+01 1.248299999999999983e+02
1.260199999999999960e+02 1.243739999999999952e+02 2.845649999999999835e+01 1.262879999999999967e+02 1.235919999999999987e+02 2.922609999999999886e+01 1.290109999999999957e+02 1.258040000000000020e+02 2.927919999999999945e+01 1.292820000000000107e+02 1.256800000000000068e+02 2.820429999999999993e+01
9.852150000000000318e+01 3.262129999999999797e+01 1.348269999999999982e+02 9.784269999999999357e+01 3.233290000000000219e+01 1.339960000000000093e+02 9.856319999999999482e+01 3.249389999999999645e+01 1.293950000000000102e+02 9.854649999999999466e+01 3.144940000000000069e+01 1.293379999999999939e+02
2.583950000000000102e+01 3.565849999999999653e+01 1.289019999999999868e+02 2.624119999999999919e+01 3.460520000000000351e+01 1.287779999999999916e+02 2.693730000000000047e+01 3.481000000000000227e+01 1.318689999999999998e+02 2.716450000000000031e+01 3.410309999999999775e+01 1.310920000000000130e+02
7.425020000000000664e+01 3.601919999999999789e+01 7.599110000000000298e+01 7.325740000000000407e+01 3.629209999999999781e+01 7.614669999999999561e+01 7.499800000000000466e+01 3.607079999999999842e+01 8.054970000000000141e+01 7.444620000000000459e+01 3.639209999999999923e+01 8.147960000000000491e+01
7.344880000000000564e+01 1.197219999999999942e+02 1.367329999999999934e+01 7.453919999999999391e+01 1.198509999999999991e+02 1.350929999999999964e+01 7.625520000000000209e+01 1.200909999999999940e+02 1.734499999999999886e+01 7.674569999999999936e+01 1.191260000000000048e+02 1.742640000000000100e+01
1.153100000000000023e+02 1.355660000000000025e+02 6.423000000000000043e+00 1.150649999999999977e+02 1.359710000000000036e+02 5.394409999999999705e+00 1.167660000000000053e+02 1.388509999999999991e+02 5.649619999999999642e+00 1.170169999999999959e+02 1.384250000000000114e+02 6.589339999999999975e+00
7.450709999999999411e+01 3.082949999999999946e+01 1.215559999999999974e+01 7.469880000000000564e+01 3.203600000000000136e+01 1.266109999999999935e+01 7.530840000000000600e+01 3.055110000000000170e+01 1.075900000000000034e+01 7.576069999999999993e+01 3.011749999999999972e+01 1.174070000000000036e+01
1.152150000000000034e+02 1.360560000000000116e+02 6.110890000000000377e+00 1.148130000000000024e+02 1.364790000000000134e+02 5.201469999999999594e+00 1.132519999999999953e+02 1.343859999999999957e+02 2.066069999999999851e+00 1.131680000000000064e+02 1.353170000000000073e+02 1.591460000000000097e+00
7.599630000000000507e+01 1.083189999999999920e+01 1.571620000000000061e+01 7.463909999999999911e+01 9.083780000000000854e+00 1.611769999999999925e+01 7.467470000000000141e+01 1.066189999999999927e+01 1.575869999999999926e+01 7.535179999999999723e+01 9.824769999999999115e+00 1.678340000000000032e+01
1.164000000000000057e+02 8.494310000000000116e+01 6.183299999999999841e+01 1.162780000000000058e+02 8.409629999999999939e+01 6.255989999999999895e+01 1.153730000000000047e+02 8.614730000000000132e+01 6.534969999999999857e+01 1.156209999999999951e+02 8.634990000000000521e+01 6.640019999999999811e+01
1.340620000000000012e+01 9.610769999999999413e+01 5.371340000000000003e+01 1.271230000000000082e+01 9.764900000000000091e+01 5.259369999999999834e+01 1.388349999999999973e+01 9.743510000000000559e+01 5.375900000000000034e+01 1.273530000000000051e+01 9.711459999999999582e+01 5.505270000000000152e+01
