-5.960593903256017256e+03
-5.951832805065932007e+03
-5.952761882909511769e+03
-5.960554304620889525e+03
-5.960288864840712449e+03
-5.960301456583159961e+03
-5.960194851814199865e+03
-5.960572655136221329e+03
-5.960377969450160890e+03
-5.952298627644050612e+03
-5.960265514831808105e+03
-5.950986937927174040e+03
-5.960586711313843807e+03
-5.946756392632844836e+03
