LAMMPS (16 Mar 2018)
clear
units 	metal
dimension	3
boundary	p	p    p
atom_style	atomic
box         tilt large
read_data   conf.lmp
  triclinic box = (0 0 0) to (3.63457 4.06357 24.3814) with tilt (-1.81728 0 0)
WARNING: Triclinic box skew is large (../domain.cpp:197)
  1 by 1 by 1 MPI processor grid
  reading atoms ...
  15 atoms
mass            1 1
neigh_modify    every 1 delay 0 check no
pair_style deepmd frozen_model.pb
pair_coeff
compute         mype all pe
thermo          100
thermo_style    custom step pe pxx pyy pzz pxy pxz pyz lx ly lz vol c_mype
dump            1 all custom 100 dump.relax id type xs ys zs fx fy fz
min_style       cg
minimize        1.000000e-12 1.000000e-06 5000 500000
WARNING: Using 'neigh_modify every 1 delay 0 check yes' setting during minimization (../min.cpp:168)
Neighbor list info ...
  update every 1 steps, delay 0 steps, check yes
  max neighbors/atom: 2000, page size: 100000
  master list distance cutoff = 10
  ghost atom cutoff = 10
  binsize = 5, bins = 2 1 5
  1 neighbor lists, perpetual/occasional/extra = 1 0 0
  (1) pair deepmd, perpetual
      attributes: , newton on
      pair build: full/bin/atomonly
      stencil: full/bin/3d
      bin: standard
Per MPI rank memory allocation (min/avg/max) = 5.161 | 5.161 | 5.161 Mbytes
Step PotEng Pxx Pyy Pzz Pxy Pxz Pyz Lx Ly Lz Volume c_mype 
       0   -52.836445   -18371.258   -15130.704   -9622.4947  0.041045908 -0.0018713504    1307.1621     3.634567      4.06357    24.381418     360.0969   -52.836445 
      25    -52.93603   -10145.443   -10399.266  -0.26648059  0.043418369 8.9722318e-06  0.030054302     3.634567      4.06357    24.381418     360.0969    -52.93603 
Loop time of 3.09455 on 1 procs for 25 steps with 15 atoms

318.3% CPU use with 1 MPI tasks x no OpenMP threads

Minimization stats:
  Stopping criterion = energy tolerance
  Energy initial, next-to-last, final = 
        -52.8364445246     -52.9360297187     -52.9360297188
  Force two-norm initial, final = 1.04179 1.43221e-05
  Force max component initial, final = 0.599579 4.4659e-06
  Final line search alpha, max atom move = 1 4.4659e-06
  Iterations, force evaluations = 25 50

MPI task timing breakdown:
Section |  min time  |  avg time  |  max time  |%varavg| %total
---------------------------------------------------------------
Pair    | 3.0925     | 3.0925     | 3.0925     |   0.0 | 99.93
Neigh   | 0          | 0          | 0          |   0.0 |  0.00
Comm    | 0.00090289 | 0.00090289 | 0.00090289 |   0.0 |  0.03
Output  | 0          | 0          | 0          |   0.0 |  0.00
Modify  | 0          | 0          | 0          |   0.0 |  0.00
Other   |            | 0.001118   |            |       |  0.04

Nlocal:    15 ave 15 max 15 min
Histogram: 1 0 0 0 0 0 0 0 0 0
Nghost:    1119 ave 1119 max 1119 min
Histogram: 1 0 0 0 0 0 0 0 0 0
Neighs:    0 ave 0 max 0 min
Histogram: 1 0 0 0 0 0 0 0 0 0

Total # of neighbors = 0
Ave neighs/atom = 0
Neighbor list builds = 0
Dangerous builds not checked
variable        N equal count(all)
variable        V equal vol
variable        E equal "c_mype"
variable        tmplx equal lx
variable        tmply equal ly
variable        Pxx equal pxx
variable        Pyy equal pyy
variable        Pzz equal pzz
variable        Pxy equal pxy
variable        Pxz equal pxz
variable        Pyz equal pyz
variable        Epa equal ${E}/${N}
variable        Epa equal -52.9360297187873/${N}
variable        Epa equal -52.9360297187873/15
variable        Vpa equal ${V}/${N}
variable        Vpa equal 360.09690169386/${N}
variable        Vpa equal 360.09690169386/15
variable        AA equal (${tmplx}*${tmply})
variable        AA equal (3.634567*${tmply})
variable        AA equal (3.634567*4.06357)
print "All done"
All done
print "Total number of atoms = ${N}"
Total number of atoms = 15
print "Final energy per atoms = ${Epa}"
Final energy per atoms = -3.52906864791915
print "Final volume per atoms = ${Vpa}"
Final volume per atoms = 24.006460112924
print "Final Base area = ${AA}"
Final Base area = 14.76931742419
print "Final Stress (xx yy zz xy xz yz) = ${Pxx} ${Pyy} ${Pzz} ${Pxy} ${Pxz} ${Pyz}"
Final Stress (xx yy zz xy xz yz) = -10145.4427909955 -10399.2656952515 -0.266480587645614 0.0434183689357849 8.97223176250495e-06 0.0300543019779743
Total wall time: 0:00:05
