LAMMPS (16 Mar 2018)
clear
units 	metal
dimension	3
boundary	p	p    p
atom_style	atomic
box         tilt large
read_data   conf.lmp
  triclinic box = (0 0 0) to (2.57003 10.5183 22.6457) with tilt (-1.28501 0 -4.70968)
WARNING: Triclinic box skew is large (../domain.cpp:197)
  1 by 1 by 1 MPI processor grid
  reading atoms ...
  24 atoms
mass            1 1
neigh_modify    every 1 delay 0 check no
pair_style deepmd frozen_model.pb
pair_coeff
compute         mype all pe
thermo          100
thermo_style    custom step pe pxx pyy pzz pxy pxz pyz lx ly lz vol c_mype
dump            1 all custom 100 dump.relax id type xs ys zs fx fy fz
min_style       cg
minimize        1.000000e-12 1.000000e-06 5000 500000
WARNING: Using 'neigh_modify every 1 delay 0 check yes' setting during minimization (../min.cpp:168)
Neighbor list info ...
  update every 1 steps, delay 0 steps, check yes
  max neighbors/atom: 2000, page size: 100000
  master list distance cutoff = 10
  ghost atom cutoff = 10
  binsize = 5, bins = 1 4 5
  1 neighbor lists, perpetual/occasional/extra = 1 0 0
  (1) pair deepmd, perpetual
      attributes: , newton on
      pair build: full/bin/atomonly
      stencil: full/bin/3d
      bin: standard
Per MPI rank memory allocation (min/avg/max) = 5.16 | 5.16 | 5.16 Mbytes
Step PotEng Pxx Pyy Pzz Pxy Pxz Pyz Lx Ly Lz Volume c_mype 
       0   -84.222496   -19420.251   -15180.277    -9759.584 0.0005876798 0.0048914873    -1052.432     2.570027     10.51829    22.645686    612.16472   -84.222496 
      25   -84.353054   -14142.072   -8258.6248 -0.078276546 0.0052683038 7.5537124e-06 -0.018083894     2.570027     10.51829    22.645686    612.16472   -84.353054 
Loop time of 2.96856 on 1 procs for 25 steps with 24 atoms

293.6% CPU use with 1 MPI tasks x no OpenMP threads

Minimization stats:
  Stopping criterion = energy tolerance
  Energy initial, next-to-last, final = 
        -84.2224963668     -84.3530538338     -84.3530538338
  Force two-norm initial, final = 1.10124 1.53661e-05
  Force max component initial, final = 0.440693 4.88172e-06
  Final line search alpha, max atom move = 1 4.88172e-06
  Iterations, force evaluations = 25 50

MPI task timing breakdown:
Section |  min time  |  avg time  |  max time  |%varavg| %total
---------------------------------------------------------------
Pair    | 2.967      | 2.967      | 2.967      |   0.0 | 99.95
Neigh   | 0          | 0          | 0          |   0.0 |  0.00
Comm    | 0.00063515 | 0.00063515 | 0.00063515 |   0.0 |  0.02
Output  | 0          | 0          | 0          |   0.0 |  0.00
Modify  | 0          | 0          | 0          |   0.0 |  0.00
Other   |            | 0.0008957  |            |       |  0.03

Nlocal:    24 ave 24 max 24 min
Histogram: 1 0 0 0 0 0 0 0 0 0
Nghost:    1188 ave 1188 max 1188 min
Histogram: 1 0 0 0 0 0 0 0 0 0
Neighs:    0 ave 0 max 0 min
Histogram: 1 0 0 0 0 0 0 0 0 0

Total # of neighbors = 0
Ave neighs/atom = 0
Neighbor list builds = 0
Dangerous builds not checked
variable        N equal count(all)
variable        V equal vol
variable        E equal "c_mype"
variable        tmplx equal lx
variable        tmply equal ly
variable        Pxx equal pxx
variable        Pyy equal pyy
variable        Pzz equal pzz
variable        Pxy equal pxy
variable        Pxz equal pxz
variable        Pyz equal pyz
variable        Epa equal ${E}/${N}
variable        Epa equal -84.3530538338327/${N}
variable        Epa equal -84.3530538338327/24
variable        Vpa equal ${V}/${N}
variable        Vpa equal 612.16472346223/${N}
variable        Vpa equal 612.16472346223/24
variable        AA equal (${tmplx}*${tmply})
variable        AA equal (2.570027*${tmply})
variable        AA equal (2.570027*10.518289814)
print "All done"
All done
print "Total number of atoms = ${N}"
Total number of atoms = 24
print "Final energy per atoms = ${Epa}"
Final energy per atoms = -3.5147105764097
print "Final volume per atoms = ${Vpa}"
Final volume per atoms = 25.5068634775929
print "Final Base area = ${AA}"
Final Base area = 27.032288815805
print "Final Stress (xx yy zz xy xz yz) = ${Pxx} ${Pyy} ${Pzz} ${Pxy} ${Pxz} ${Pyz}"
Final Stress (xx yy zz xy xz yz) = -14142.0724983356 -8258.62480140969 -0.0782765461923966 0.00526830384852488 7.55371240097164e-06 -0.0180838935523464
Total wall time: 0:00:04
