LAMMPS (16 Mar 2018)
clear
units 	metal
dimension	3
boundary	p	p    p
atom_style	atomic
box         tilt large
read_data   conf.lmp
  triclinic box = (0 0 0) to (6.79965 4.45142 22.6041) with tilt (2.713e-07 9.2281 42.2885)
WARNING: Triclinic box skew is large (../domain.cpp:197)
  1 by 1 by 1 MPI processor grid
  reading atoms ...
  27 atoms
mass            1 1
neigh_modify    every 1 delay 0 check no
pair_style deepmd frozen_model.pb
pair_coeff
compute         mype all pe
thermo          100
thermo_style    custom step pe pxx pyy pzz pxy pxz pyz lx ly lz vol c_mype
dump            1 all custom 100 dump.relax id type xs ys zs fx fy fz
min_style       cg
minimize        1.000000e-12 1.000000e-06 5000 500000
WARNING: Using 'neigh_modify every 1 delay 0 check yes' setting during minimization (../min.cpp:168)
Neighbor list info ...
  update every 1 steps, delay 0 steps, check yes
  max neighbors/atom: 2000, page size: 100000
  master list distance cutoff = 10
  ghost atom cutoff = 10
  binsize = 5, bins = 4 10 5
  1 neighbor lists, perpetual/occasional/extra = 1 0 0
  (1) pair deepmd, perpetual
      attributes: , newton on
      pair build: full/bin/atomonly
      stencil: full/bin/3d
      bin: standard
Per MPI rank memory allocation (min/avg/max) = 5.245 | 5.245 | 5.245 Mbytes
Step PotEng Pxx Pyy Pzz Pxy Pxz Pyz Lx Ly Lz Volume c_mype 
       0   -94.471668   -18233.522   -17096.208   -10695.468   -1338.9541   -735.18024    1095.1263    6.7996524    4.4514177    22.604132    684.18396   -94.471668 
      26   -94.660734   -12001.445   -8948.1683 -0.046494548   -564.80245    0.1075577  -0.11022605    6.7996524    4.4514177    22.604132    684.18396   -94.660734 
Loop time of 3.3914 on 1 procs for 26 steps with 27 atoms

291.5% CPU use with 1 MPI tasks x no OpenMP threads

Minimization stats:
  Stopping criterion = energy tolerance
  Energy initial, next-to-last, final = 
        -94.4716677156      -94.660733854     -94.6607338541
  Force two-norm initial, final = 1.37562 1.00668e-05
  Force max component initial, final = 0.641407 2.55367e-06
  Final line search alpha, max atom move = 1 2.55367e-06
  Iterations, force evaluations = 26 52

MPI task timing breakdown:
Section |  min time  |  avg time  |  max time  |%varavg| %total
---------------------------------------------------------------
Pair    | 3.3873     | 3.3873     | 3.3873     |   0.0 | 99.88
Neigh   | 0          | 0          | 0          |   0.0 |  0.00
Comm    | 0.0010209  | 0.0010209  | 0.0010209  |   0.0 |  0.03
Output  | 0          | 0          | 0          |   0.0 |  0.00
Modify  | 0          | 0          | 0          |   0.0 |  0.00
Other   |            | 0.003081   |            |       |  0.09

Nlocal:    27 ave 27 max 27 min
Histogram: 1 0 0 0 0 0 0 0 0 0
Nghost:    2053 ave 2053 max 2053 min
Histogram: 1 0 0 0 0 0 0 0 0 0
Neighs:    0 ave 0 max 0 min
Histogram: 1 0 0 0 0 0 0 0 0 0

Total # of neighbors = 0
Ave neighs/atom = 0
Neighbor list builds = 0
Dangerous builds not checked
variable        N equal count(all)
variable        V equal vol
variable        E equal "c_mype"
variable        tmplx equal lx
variable        tmply equal ly
variable        Pxx equal pxx
variable        Pyy equal pyy
variable        Pzz equal pzz
variable        Pxy equal pxy
variable        Pxz equal pxz
variable        Pyz equal pyz
variable        Epa equal ${E}/${N}
variable        Epa equal -94.6607338540781/${N}
variable        Epa equal -94.6607338540781/27
variable        Vpa equal ${V}/${N}
variable        Vpa equal 684.183959590333/${N}
variable        Vpa equal 684.183959590333/27
variable        AA equal (${tmplx}*${tmply})
variable        AA equal (6.7996523882*${tmply})
variable        AA equal (6.7996523882*4.4514176703)
print "All done"
All done
print "Total number of atoms = ${N}"
Total number of atoms = 27
print "Final energy per atoms = ${Epa}"
Final energy per atoms = -3.5059531057066
print "Final volume per atoms = ${Vpa}"
Final volume per atoms = 25.3401466514938
print "Final Base area = ${AA}"
Final Base area = 30.2680927927311
print "Final Stress (xx yy zz xy xz yz) = ${Pxx} ${Pyy} ${Pzz} ${Pxy} ${Pxz} ${Pyz}"
Final Stress (xx yy zz xy xz yz) = -12001.4453979345 -8948.16827635394 -0.0464945484740445 -564.802453840056 0.107557697166405 -0.110226054416701
Total wall time: 0:00:05
