-3.011193183538706762e+03
-3.011192354598247221e+03
