3.706442922673235163e+00 -3.201498274662029964e+00 -3.607063658049205479e-01 -3.706028666497645840e+00 3.201480379782548180e+00 3.608216026581349545e-01 -6.993193431627725554e-01 -2.781415516029072665e-01 -3.012712489758261891e-01 6.989051384092508368e-01 2.781594464823890500e-01 3.011560121226117270e-01
1.126185238138599054e+00 3.950585180280077324e-01 4.764596302742047484e+00 -1.126436897736828202e+00 -3.948118977923913420e-01 -4.763859424515112018e+00 -8.869684432649763139e-02 8.327359026907317219e-01 2.013860426298970108e-01 8.894845250265930037e-02 -8.329825743484157163e-01 -2.021229208568327551e-01
