                                                                                     
                             WELCOME TO ABACUS                                       
                                                                                     
               'Atomic-orbital Based Ab-initio Computation at UStc'                  
                                                                                     
                     Website: http://abacus.ustc.edu.cn/                             
                                                                                     
    Version: Parallel, in development
    Processor Number is 8
    Start Time is Fri Nov 12 18:16:22 2021
                                                                                     
 ------------------------------------------------------------------------------------

 READING GENERAL INFORMATION
                           global_out_dir = OUT.ABACUS/
                           global_in_card = INPUT
                               pseudo_dir = 
                              orbital_dir = 
                              pseudo_type = auto
                                    DRANK = 1
                                    DSIZE = 8
                                   DCOLOR = 1
                                    GRANK = 1
                                    GSIZE = 1




 >>>>>>>>>>>>>>>>>>>>>>>>>>>>>>>>>>>>>>>>>>>>>>>>>>>>>>>>>>>>>>>>>>>>>>
 |                                                                    |
 | Reading atom information in unitcell:                              |
 | From the input file and the structure file we know the number of   |
 | different elments in this unitcell, then we list the detail        |
 | information for each element, especially the zeta and polar atomic |
 | orbital number for each element. The total atom number is counted. |
 | We calculate the nearest atom distance for each atom and show the  |
 | Cartesian and Direct coordinates for each atom. We list the file   |
 | address for atomic orbitals. The volume and the lattice vectors    |
 | in real and reciprocal space is also shown.                        |
 |                                                                    |
 <<<<<<<<<<<<<<<<<<<<<<<<<<<<<<<<<<<<<<<<<<<<<<<<<<<<<<<<<<<<<<<<<<<<<<




 READING UNITCELL INFORMATION
                                    ntype = 2
                 atom label for species 1 = H
                 atom label for species 2 = C
                  lattice constant (Bohr) = 1.88973
              lattice constant (Angstrom) = 1

 READING ATOM TYPE 1
                               atom label = H
                      L=0, number of zeta = 1
                      L=1, number of zeta = 1
                      L=2, number of zeta = 1
             number of atom for this type = 4
                      start magnetization = FALSE
                      start magnetization = FALSE
                      start magnetization = FALSE
                      start magnetization = FALSE

 READING ATOM TYPE 2
                               atom label = C
                      L=0, number of zeta = 1
                      L=1, number of zeta = 1
                      L=2, number of zeta = 1
             number of atom for this type = 1
                      start magnetization = FALSE

                        TOTAL ATOM NUMBER = 5

 CARTESIAN COORDINATES ( UNIT = 1.88973 Bohr ).
         atom                   x                   y                   z                 mag                  vx                  vy                  vz
      tauc_H1       5.09642839721       3.89243558658       3.46181024571                   0                   0                   0                   0
      tauc_H2       3.79915812176       4.55467455263       4.16556354192                   0                   0                   0                   0
      tauc_H3       5.22389947082       5.33033053366       4.21113724544                   0                   0                   0                   0
      tauc_H4       5.00541687456       3.98165554454       5.08665008197                   0                   0                   0                   0
      tauc_C1       4.77987185192       4.43897624107       4.22772783445                   0                   0                   0                   0


                          Volume (Bohr^3) = 6079.05350607
                             Volume (A^3) = 900.821712756

 Lattice vectors: (Cartesian coordinate: in unit of a_0)
       +9.70691437102                  +0                  +0
      -0.281382603073      +9.68406871255                  +0
      +0.158246266482     -0.163817668352      +9.58297385826
 Reciprocal vectors: (Cartesian coordinate: in unit of 2 pi/a_0)
      +0.103019349072   +0.00299335470133   -0.00165001629058
                   -0      +0.10326238172    +0.0017652351819
                   +0                  -0     +0.104351740367




 >>>>>>>>>>>>>>>>>>>>>>>>>>>>>>>>>>>>>>>>>>>>>>>>>>>>>>>>>>>>>>>>>>>>>>
 |                                                                    |
 | Reading pseudopotentials files:                                    |
 | The pseudopotential file is in UPF format. The 'NC' indicates that |
 | the type of pseudopotential is 'norm conserving'. Functional of    |
 | exchange and correlation is decided by 4 given parameters in UPF   |
 | file.  We also read in the 'core correction' if there exists.      |
 | Also we can read the valence electrons number and the maximal      |
 | angular momentum used in this pseudopotential. We also read in the |
 | trail wave function, trail atomic density and local-pseudopotential|
 | on logrithmic grid. The non-local pseudopotential projector is also|
 | read in if there is any.                                           |
 |                                                                    |
 <<<<<<<<<<<<<<<<<<<<<<<<<<<<<<<<<<<<<<<<<<<<<<<<<<<<<<<<<<<<<<<<<<<<<<




                PAO radial cut off (Bohr) = 15

 Read in pseudopotential file is H_ONCV_PBE-1.0.upf
                     pseudopotential type = NC
                            functional Ex = PBE
                            functional Ec = 
                          functional GCEx = 
                          functional GCEc = 
                 nonlocal core correction = 0
                        valence electrons = 1
                                     lmax = 0
                           number of zeta = 0
                     number of projectors = 2
                           L of projector = 0
                           L of projector = 0
                PAO radial cut off (Bohr) = 15

 Read in pseudopotential file is C_ONCV_PBE-1.0.upf
                     pseudopotential type = NC
                            functional Ex = PBE
                            functional Ec = 
                          functional GCEx = 
                          functional GCEc = 
                 nonlocal core correction = 0
                        valence electrons = 4
                                     lmax = 1
                           number of zeta = 0
                     number of projectors = 4
                           L of projector = 0
                           L of projector = 0
                           L of projector = 1
                           L of projector = 1
     initial pseudo atomic orbital number = 0
                                   NLOCAL = 45

 SETUP THE ELECTRONS NUMBER
             electron number of element H = 1
       total electron number of element H = 4
             electron number of element C = 4
       total electron number of element C = 4
                           occupied bands = 4
                                   NBANDS = 14
 DONE : SETUP UNITCELL Time : 0.070024178247 (SEC)





 >>>>>>>>>>>>>>>>>>>>>>>>>>>>>>>>>>>>>>>>>>>>>>>>>>>>>>>>>>>>>>>>>>>>>>
 |                                                                    |
 | Setup K-points                                                     |
 | We setup the k-points according to input parameters.               |
 | The reduced k-points are set according to symmetry operations.     |
 | We treat the spin as another set of k-points.                      |
 |                                                                    |
 <<<<<<<<<<<<<<<<<<<<<<<<<<<<<<<<<<<<<<<<<<<<<<<<<<<<<<<<<<<<<<<<<<<<<<





 SETUP K-POINTS
                                    nspin = 1
                   Input type of k points = Monkhorst-Pack(Gamma)
                                   nkstot = 1

  KPOINTS            DIRECT_X            DIRECT_Y            DIRECT_Z              WEIGHT
        1                   0                   0                   0                   1

           k-point number in this process = 1
       minimum distributed K point number = 1

  KPOINTS         CARTESIAN_X         CARTESIAN_Y         CARTESIAN_Z              WEIGHT
        1                   0                   0                   0                   2

  KPOINTS            DIRECT_X            DIRECT_Y            DIRECT_Z              WEIGHT
        1                   0                   0                   0                   2
 DONE : INIT K-POINTS Time : 0.0716588154319 (SEC)





 >>>>>>>>>>>>>>>>>>>>>>>>>>>>>>>>>>>>>>>>>>>>>>>>>>>>>>>>>>>>>>>>>>>>>>
 |                                                                    |
 | Setup plane waves:                                                 |
 | Use the energy cutoff and the lattice vectors to generate the      |
 | dimensions of FFT grid. The number of FFT grid on each processor   |
 | is 'nrxx'. The number of plane wave basis in reciprocal space is   |
 | different for charege/potential and wave functions. We also set    |
 | the 'sticks' for the parallel of FFT.                              |
 |                                                                    |
 <<<<<<<<<<<<<<<<<<<<<<<<<<<<<<<<<<<<<<<<<<<<<<<<<<<<<<<<<<<<<<<<<<<<<<





 SETUP THE PLANE WAVE BASIS
     energy cutoff for wavefunc (unit:Ry) = 90
            [fft grid for wave functions] = 120, 120, 120
          [fft grid for charge/potential] = 120, 120, 120
                      [fft grid division] = 1, 1, 1
      [big fft grid for charge/potential] = 120, 120, 120
                                     nbxx = 216000
                                     nrxx = 216000

 SETUP PLANE WAVES FOR CHARGE/POTENTIAL
                    number of plane waves = 701419
                         number of sticks = 9633

 SETUP PLANE WAVES FOR WAVE FUNCTIONS
                    number of plane waves = 87687
                         number of sticks = 2409

 PARALLEL PW FOR CHARGE/POTENTIAL
     PROC   COLUMNS(POT)             PW
        1           1204          87678
        2           1204          87678
        3           1205          87677
        4           1204          87678
        5           1204          87677
        6           1204          87677
        7           1204          87677
        8           1204          87677
 --------------- sum -------------------
        8           9633         701419

 PARALLEL PW FOR WAVE FUNCTIONS
     PROC     COLUMNS(W)             PW
        1            300          10959
        2            301          10962
        3            303          10960
        4            302          10960
        5            303          10961
        6            300          10961
        7            301          10964
        8            299          10960
 --------------- sum -------------------
        8           2409          87687

 SETUP COORDINATES OF PLANE WAVES
              number of total plane waves = 701419

 SETUP COORDINATES OF PLANE WAVES
                            number of |g| = 84378
                                  max |g| = 32.563923009
                                  min |g| = 0
 DONE : INIT PLANEWAVE Time : 0.350538940344 (SEC)

                                     npwx = 10959

 SETUP NONLOCAL PSEUDOPOTENTIALS IN PLANE WAVE BASIS
 H non-local projectors:
 projector 1 L=0
 projector 2 L=0
 C non-local projectors:
 projector 1 L=0
 projector 2 L=0
 projector 3 L=1
 projector 4 L=1
      TOTAL NUMBER OF NONLOCAL PROJECTORS = 16
 DONE : LOCAL POTENTIAL Time : 4.32109053986 (SEC)


 Init Non-Local PseudoPotential table : 
 Init Non-Local-Pseudopotential done.
 DONE : NON-LOCAL POTENTIAL Time : 4.32724457909 (SEC)

                                start_pot = atomic
 DONE : INIT POTENTIAL Time : 4.80582 (SEC)


 Make real space PAO into reciprocal space.
       max mesh points in Pseudopotential = 601
     dq(describe PAO in reciprocal space) = 0.01
                                    max q = 1143

 number of pseudo atomic orbitals for H is 0

 number of pseudo atomic orbitals for C is 0
 DONE : INIT BASIS Time : 5.09354 (SEC)

 ...............Nose-Hoover Chain parameter initialization...............  
 Temperature =    0
 Temperature2 =    0
 NHC frequency =    0.00120944
 NHC chain =    4
 Qmass  =    1822.89
 ...............................................................  

 PW ALGORITHM --------------- ION=   1  ELEC=   1--------------------------------
  K-point    CG iter num      Time(Sec)
        1       9.785714       1.390000

 Density error is 0.942995755677

 PW ALGORITHM --------------- ION=   1  ELEC=   2--------------------------------
  K-point    CG iter num      Time(Sec)
        1       2.285714       0.410000

 Density error is 0.099685883319

 PW ALGORITHM --------------- ION=   1  ELEC=   3--------------------------------
  K-point    CG iter num      Time(Sec)
        1       4.142857       0.650000

 Density error is 0.029031982042

 PW ALGORITHM --------------- ION=   1  ELEC=   4--------------------------------
  K-point    CG iter num      Time(Sec)
        1       4.285714       0.660000

 Density error is 0.216126036110

 PW ALGORITHM --------------- ION=   1  ELEC=   5--------------------------------
  K-point    CG iter num      Time(Sec)
        1       3.357143       0.540000

 Density error is 0.000141170928

 PW ALGORITHM --------------- ION=   1  ELEC=   6--------------------------------
  K-point    CG iter num      Time(Sec)
        1       7.357143       1.070000

 Density error is 0.000036712166

 PW ALGORITHM --------------- ION=   1  ELEC=   7--------------------------------
  K-point    CG iter num      Time(Sec)
        1       3.928571       0.680000

 Density error is 0.000012403136

 PW ALGORITHM --------------- ION=   1  ELEC=   8--------------------------------
  K-point    CG iter num      Time(Sec)
        1       4.642857       0.780000

 Density error is 0.000000169540

 PW ALGORITHM --------------- ION=   1  ELEC=   9--------------------------------
  K-point    CG iter num      Time(Sec)
        1       6.785714       1.080000

 Density error is 0.000000193385

 PW ALGORITHM --------------- ION=   1  ELEC=  10--------------------------------
  K-point    CG iter num      Time(Sec)
        1       4.000000       0.630000

 Density error is 0.000000002471

 PW ALGORITHM --------------- ION=   1  ELEC=  11--------------------------------
  K-point    CG iter num      Time(Sec)
        1       9.000000       1.160000

 Density error is 0.000000000287

 charge density convergence is achieved
 final etot is -219.132652714524 eV



 ><><><><><><><><><><><><><><><><><><><><><><

    TOTAL-FORCE (eV/Angstrom)

 ><><><><><><><><><><><><><><><><><><><><><><

     atom              x              y              z
       H1      +1.427623      -2.413519      -3.360832
       H2      -4.528626      +0.554349      -0.282580
       H3      +1.865702      +3.772834      -0.111599
       H4      +0.916683      -1.897685      +3.461780
       C1      +0.318617      -0.015979      +0.293231


 ><><><><><><><><><><><><><><><><><><><><><><

 TOTAL-STRESS (KBAR)

 ><><><><><><><><><><><><><><><><><><><><><><

      +10.529622      -0.107421      -0.098680
       -0.107421      +9.970420      +0.216130
       -0.098680      +0.216130      +9.886865

output Pressure for check!
Virtual Pressure is +20.257937 Kbar 
Virial Term is +20.257937 Kbar 
Kenetic Term is +0.000000 Kbar 

 --------------------------------------------------
 Molecular Dynamics (NVT) STEP 1
 --------------------------------------------------
--------------------------------------------------
            SUMMARY OF NVT CALCULATION            
 --------------------------------------------------
 NVT Conservation     : -16.105947 (Rydberg)
 NVT Temperature      :  +0.000000 (K)
 NVT Kinetic energy   :  +0.000000 (Rydberg)
 NVT Potential energy : -16.105947 (Rydberg)
 maxForce             :  +0.007902
 maxStep              :  +0.041308
 MD_STEP             SystemE             Conserved           DeltaE              Temperature         
 +1                  -8.052974           -8.052974           +0.000000           +171.583724         

 PW ALGORITHM --------------- ION=+2    ELEC=+1  --------------------------------
 K-point CG iter num    Time(Sec)      
 +1      +54.428571     +6.400000      

 Density error is +0.003416963341

 PW ALGORITHM --------------- ION=+2    ELEC=+2  --------------------------------
 K-point CG iter num    Time(Sec)      
 +1      +2.214286      +0.340000      

 Density error is +0.000062315805

 PW ALGORITHM --------------- ION=+2    ELEC=+3  --------------------------------
 K-point CG iter num    Time(Sec)      
 +1      +4.071429      +0.560000      

 Density error is +0.000015787808

 PW ALGORITHM --------------- ION=+2    ELEC=+4  --------------------------------
 K-point CG iter num    Time(Sec)      
 +1      +3.357143      +0.480000      

 Density error is +0.000001288949

 PW ALGORITHM --------------- ION=+2    ELEC=+5  --------------------------------
 K-point CG iter num    Time(Sec)      
 +1      +5.500000      +0.750000      

 Density error is +0.000000182921

 PW ALGORITHM --------------- ION=+2    ELEC=+6  --------------------------------
 K-point CG iter num    Time(Sec)      
 +1      +2.857143      +0.420000      

 Density error is +0.000000016603

 PW ALGORITHM --------------- ION=+2    ELEC=+7  --------------------------------
 K-point CG iter num    Time(Sec)      
 +1      +5.285714      +0.700000      

 Density error is +0.000000011064

 PW ALGORITHM --------------- ION=+2    ELEC=+8  --------------------------------
 K-point CG iter num    Time(Sec)      
 +1      +2.000000      +0.330000      

 Density error is +0.000000004133

 PW ALGORITHM --------------- ION=+2    ELEC=+9  --------------------------------
 K-point CG iter num    Time(Sec)      
 +1      +3.214286      +0.470000      

 Density error is +0.000000000094

 charge density convergence is achieved
 final etot is -219.442104652403 eV



 ><><><><><><><><><><><><><><><><><><><><><><

    TOTAL-FORCE (eV/Angstrom)

 ><><><><><><><><><><><><><><><><><><><><><><

 atom    x              y              z              
 H1      +1.068960      -1.799542      -2.503128      
 H2      -3.353024      +0.414117      -0.209592      
 H3      +1.397261      +2.832427      -0.092488      
 H4      +0.691597      -1.440532      +2.608917      
 C1      +0.195206      -0.006470      +0.196291      


 ><><><><><><><><><><><><><><><><><><><><><><

 TOTAL-STRESS (KBAR)

 ><><><><><><><><><><><><><><><><><><><><><><

 +7.986919      -0.080516      -0.073538      
 -0.080516      +7.635404      +0.126752      
 -0.073538      +0.126752      +7.556286      

output Pressure for check!
Virtual Pressure is +15.557594 Kbar 
Virial Term is +15.452406 Kbar 
Kenetic Term is +0.105188 Kbar 

 --------------------------------------------------
 Molecular Dynamics (NVT) STEP 2
 --------------------------------------------------
--------------------------------------------------
            SUMMARY OF NVT CALCULATION            
 --------------------------------------------------
 NVT Conservation     : -16.108768 (Rydberg)
 NVT Temperature      : +524.091079 (K)
 NVT Kinetic energy   : +0.019916  (Rydberg)
 NVT Potential energy : -16.128691 (Rydberg)
 maxForce             : +0.004333 
 maxStep              : +0.101848 
 MD_STEP             SystemE             Conserved           DeltaE              Temperature         
 +2                  -8.064346           -8.054384           +0.000000           +1059.261288        

 PW ALGORITHM --------------- ION=+3    ELEC=+1  --------------------------------
 K-point CG iter num    Time(Sec)      
 +1      +56.071429     +6.530000      

 Density error is +0.019256453110

 PW ALGORITHM --------------- ION=+3    ELEC=+2  --------------------------------
 K-point CG iter num    Time(Sec)      
 +1      +2.214286      +0.340000      

 Density error is +0.000283272912

 PW ALGORITHM --------------- ION=+3    ELEC=+3  --------------------------------
 K-point CG iter num    Time(Sec)      
 +1      +4.214286      +0.570000      

 Density error is +0.000097131520

 PW ALGORITHM --------------- ION=+3    ELEC=+4  --------------------------------
 K-point CG iter num    Time(Sec)      
 +1      +2.714286      +0.400000      

 Density error is +0.000008019387

 PW ALGORITHM --------------- ION=+3    ELEC=+5  --------------------------------
 K-point CG iter num    Time(Sec)      
 +1      +4.642857      +0.630000      

 Density error is +0.000001180377

 PW ALGORITHM --------------- ION=+3    ELEC=+6  --------------------------------
 K-point CG iter num    Time(Sec)      
 +1      +3.571429      +0.500000      

 Density error is +0.000000049998

 PW ALGORITHM --------------- ION=+3    ELEC=+7  --------------------------------
 K-point CG iter num    Time(Sec)      
 +1      +5.500000      +0.740000      

 Density error is +0.000000005236

 PW ALGORITHM --------------- ION=+3    ELEC=+8  --------------------------------
 K-point CG iter num    Time(Sec)      
 +1      +5.285714      +0.690000      

 Density error is +0.000000019403

 PW ALGORITHM --------------- ION=+3    ELEC=+9  --------------------------------
 K-point CG iter num    Time(Sec)      
 +1      +2.571429      +0.390000      

 Density error is +0.000000001790

 PW ALGORITHM --------------- ION=+3    ELEC=+10 --------------------------------
 K-point CG iter num    Time(Sec)      
 +1      +4.000000      +0.550000      

 Density error is +0.000000000200

 charge density convergence is achieved
 final etot is -219.862372141037 eV



 ><><><><><><><><><><><><><><><><><><><><><><

    TOTAL-FORCE (eV/Angstrom)

 ><><><><><><><><><><><><><><><><><><><><><><

 atom    x              y              z              
 H1      +0.332157      -0.540133      -0.744680      
 H2      -0.978294      +0.129701      -0.061949      
 H3      +0.426044      +0.880050      -0.050137      
 H4      +0.219024      -0.477786      +0.818662      
 C1      +0.001069      +0.008168      +0.038104      


 ><><><><><><><><><><><><><><><><><><><><><><

 TOTAL-STRESS (KBAR)

 ><><><><><><><><><><><><><><><><><><><><><><

 +2.479531      -0.031426      -0.026005      
 -0.031426      +2.489387      -0.034015      
 -0.026005      -0.034015      +2.420180      

output Pressure for check!
Virtual Pressure is +5.575435 Kbar 
Virial Term is +4.926065 Kbar 
Kenetic Term is +0.649370 Kbar 

 --------------------------------------------------
 Molecular Dynamics (NVT) STEP 3
 --------------------------------------------------
--------------------------------------------------
            SUMMARY OF NVT CALCULATION            
 --------------------------------------------------
 NVT Conservation     : -16.111265 (Rydberg)
 NVT Temperature      : +1261.973956 (K)
 NVT Kinetic energy   : +0.047957  (Rydberg)
 NVT Potential energy : -16.159581 (Rydberg)
 maxForce             : +0.000370 
 maxStep              : +0.117517 
 MD_STEP             SystemE             Conserved           DeltaE              Temperature         
 +3                  -8.079790           -8.055632           +0.000000           +1447.243804        


 --------------------------------------------
 !FINAL_ETOT_IS -219.8623721410366443 eV
 --------------------------------------------






  |CLASS_NAME---------|NAME---------------|TIME(Sec)-----|CALLS----|AVG------|PER%-------
                       total               +75.201        15        +5.01     +100.00   %
   Run_pw              plane_wave_line     +75.18         1         +75.18    +99.97    %
   PW_Basis            gen_pw              +0.28          1         +0.28     +0.37     %
   Run_MD_PW           md_cells_pw         +74.83         1         +74.83    +99.51    %
   ppcell_vl           init_vloc           +3.95          1         +3.95     +5.25     %
   Potential           init_pot            +0.79          4         +0.20     +1.05     %
   FFT                 FFT3D               +28.10         8433      +0.00     +37.37    %
   Charge              atomic_rho          +2.57          7         +0.37     +3.42     %
   Potential           v_of_rho            +3.44          34        +0.10     +4.57     %
   H_XC_pw             v_xc                +3.23          37        +0.09     +4.29     %
   H_Hartree_pw        v_hartree           +0.42          34        +0.01     +0.56     %
   wavefunc            wfcinit             +1.09          4         +0.27     +1.45     %
   pp_cell_vnl         getvnl              +0.15          40        +0.00     +0.20     %
   Hamilt_PW           diagH_subspace      +3.43          34        +0.10     +4.56     %
   Hamilt_PW           h_psi               +29.25         3312      +0.01     +38.89    %
   Hamilt_PW           vloc                +26.78         3312      +0.01     +35.61    %
   Hamilt_PW           vnl                 +2.38          3312      +0.00     +3.16     %
   Hamilt_PW           add_nonlocal_pp     +1.01          3312      +0.00     +1.34     %
   Run_MD_PW           md_ions_pw          +70.11         1         +70.11    +93.22    %
   Electrons           self_consistent     +60.10         3         +20.03    +79.92    %
   Electrons           c_bands             +31.03         30        +1.03     +41.27    %
   Hamilt              diagH_pw            +30.90         30        +1.03     +41.09    %
   Diago_CG            diag                +27.87         32        +0.87     +37.06    %
   Charge              sum_band            +2.85          30        +0.10     +3.79     %
   Charge              rho_mpi             +1.04          30        +0.03     +1.39     %
   Charge              mix_rho             +0.97          30        +0.03     +1.29     %
   Forces              cal_force_nl        +0.24          3         +0.08     +0.32     %
   Stress_PW           cal_stress          +3.15          3         +1.05     +4.19     %
   Stress_Func         stress_ew           +22.56         2         +11.28    +29.99    %
   Force_Func          stress_ew           +22.55         2         +11.28    +29.99    %
   Stress_Func         stress_gga          +0.13          3         +0.04     +0.17     %
   Stress_Func         stress_loc          +1.37          3         +0.46     +1.82     %
   Stress_Func         stres_nl            +1.54          3         +0.51     +2.05     %
 ----------------------------------------------------------------------------------------

 CLASS_NAME---------|NAME---------------|MEMORY(MB)--------
                                         +71.1170
 Charge_Pulay        Rrho                +13.1836       
 Charge_Pulay        dRrho               +11.5356       
 Charge_Pulay        drho                +11.5356       
 Use_FFT             porter              +3.2959        
 PW_Basis            struc_fac           +2.6757        
 wavefunc            evc                 +2.3411        
 Charge              rho                 +1.6479        
 Charge              rho_save            +1.6479        
 Charge              rho_core            +1.6479        
 Potential           vltot               +1.6479        
 Potential           vr                  +1.6479        
 Potential           vr_eff              +1.6479        
 Potential           vr_eff1             +1.6479        
 Potential           vnew                +1.6479        
 Charge_Pulay        rho_save2           +1.6479        
 ----------------------------------------------------------

 Start  Time  : Fri Nov 12 18:16:22 2021
 Finish Time  : Fri Nov 12 18:17:37 2021
 Total  Time  : 0 h 1 mins 15 secs 
