-7.062768758193409667e+03
-7.051252642903523338e+03
