7.818770000000000664e+01 4.543589999999999662e+01 1.182999999999999972e+02 7.923914700000000266e+01 4.570568300000000050e+01 1.182011210000000005e+02 7.404319999999999879e+01 4.443370000000000175e+01 1.175789999999999935e+02 7.481579999999999586e+01 4.482620000000000005e+01 1.165990000000000038e+02 7.235859999999999559e+01 4.354419999999999646e+01 1.170199999999999960e+02 7.186209999999999809e+01 4.458239999999999981e+01 1.164449999999999932e+02
