4.734103685215464097e+00 1.215321278343411970e+00 -4.492280151475263050e-01 -4.737553180345910775e+00 -1.215886252598774364e+00 4.471049522476313043e-01 1.133150352036060760e+01 5.381669545677024935e+00 -1.019216508300430668e+01 -8.440898540518507076e+00 -4.466644245377683120e+00 1.119883777443986972e+01 -7.407861035178885167e+00 1.088385097451642025e+01 -7.154376879151551627e+00 4.520705499045163833e+00 -1.179831130056040145e+01 6.149827147771747882e+00
