6.783079999999999643e+01 8.756409999999999627e+01 6.650740000000000407e+01 6.790200299999999345e+01 8.712213699999999506e+01 6.551357000000000141e+01 6.872910000000000252e+01 8.564589999999999748e+01 7.084950000000000614e+01 6.787139999999999418e+01 8.495510000000000161e+01 7.090269999999999584e+01
1.256059999999999945e+02 1.222720000000000056e+02 1.301239999999999952e+01 1.249888720000000006e+02 1.231224880000000041e+02 1.272270499999999949e+01 1.257549999999999955e+02 1.191889999999999930e+02 1.615340000000000131e+01 1.264959999999999951e+02 1.184180000000000064e+02 1.569749999999999979e+01
1.158960000000000008e+02 5.905040000000000333e+01 8.148210000000000264e+01 1.164581620000000015e+02 5.986090300000000042e+01 8.101824899999999730e+01 1.143529999999999944e+02 5.800610000000000355e+01 8.725900000000000034e+01 1.145699999999999932e+02 5.831519999999999726e+01 8.617319999999999425e+01
4.101910000000000167e+01 1.078400000000000034e+02 1.262420000000000044e+02 4.158113500000000329e+01 1.069081680000000034e+02 1.261794990000000070e+02 3.946119999999999806e+01 1.118589999999999947e+02 1.258460000000000036e+02 4.015079999999999671e+01 1.121149999999999949e+02 1.266949999999999932e+02
8.238039999999999452e+01 3.414399999999999835e+01 5.078349999999999653e+01 8.263814200000000199e+01 3.431443600000000060e+01 5.182878500000000344e+01 8.254779999999999518e+01 3.457509999999999906e+01 4.676400000000000290e+01 8.176500000000000057e+01 3.417219999999999658e+01 4.602929999999999922e+01
