-3.011194496379247539e+03
-3.010973690946123497e+03
-3.011059191706790443e+03
-3.011170539529219241e+03
-3.011075437639086431e+03
