3.211523572359282208e-01 -1.990369437479962533e+00 -4.477992838559370803e+00 -3.210564036580173530e-01 1.990690105492744832e+00 4.477737322306081680e+00 3.560688666495681054e-01 2.872803842789348749e-01 -2.227094884606424866e-02 -3.561648202274789177e-01 -2.876010522917172851e-01 2.252646509935411073e-02
-2.780702137686974051e+00 3.832846849171177794e+00 -1.305711297085702771e+00 2.780663982512906252e+00 -3.832325686517304764e+00 1.305264439319333558e+00 4.611490696376010945e+00 -4.798431046122187738e+00 -2.836760675877302518e+00 -4.611452541201942701e+00 4.797909934890382644e+00 2.837207533643671731e+00
2.532615396128157226e+00 3.652043466067962374e+00 -2.088664930609861248e+00 -2.532496816840557052e+00 -3.651729380079816956e+00 2.088781247326492618e+00 1.106586179918604751e+00 1.576578220224801541e+00 -5.535970355157414424e+00 -1.106704759206205146e+00 -1.576892306212947181e+00 5.535854038440782610e+00
2.532399526288891423e+00 -4.199962152933943038e+00 -2.818281024644200827e-01 -2.532392944264254542e+00 4.199305904508809917e+00 2.817050494569491859e-01 1.596468841567386665e+00 5.925416257364516381e-01 1.965476580257415451e+00 -1.596475475014091039e+00 -5.918853773113187389e-01 -1.965353527249944721e+00
1.163184032752625274e+00 7.692422477640009637e-01 4.708293612575340958e+00 -1.162390487407330752e+00 -7.686322277775293754e-01 -4.709239881461040333e+00 -3.776399868683133043e+00 -1.944219571737849650e+00 -3.540339154622937023e+00 3.775606323337838077e+00 1.943609551751377840e+00 3.541285423508636399e+00
