 vasp.5.4.4.18Apr17-6-g9f103f2a35 (build Jul 12 2018 13:43:46) complex           
 executed on             LinuxGNU date 2019.06.24  12:57:25
 running on    1 total cores
 distrk:  each k-point on    1 cores,    1 groups
 distr:  one band on NCORES_PER_BAND=   1 cores,    1 groups


--------------------------------------------------------------------------------------------------------


 INCAR:
 POTCAR:    PAW_PBE H 15Jun2001                   
 POTCAR:    PAW_PBE C 08Apr2002                   
 POTCAR:    PAW_PBE H 15Jun2001                   
   VRHFIN =H: ultrasoft test                                                    
   LEXCH  = PE                                                                  
   EATOM  =    12.4884 eV,    0.9179 Ry                                         
                                                                                
   TITEL  = PAW_PBE H 15Jun2001                                                 
   LULTRA =        F    use ultrasoft PP ?                                      
   IUNSCR =        0    unscreen: 0-lin 1-nonlin 2-no                           
   RPACOR =    0.000    partial core radius                                     
   POMASS =    1.000; ZVAL   =    1.000    mass and valenz                      
   RCORE  =    1.100    outmost cutoff radius                                   
   RWIGS  =    0.700; RWIGS  =    0.370    wigner-seitz radius (au A)           
   ENMAX  =  250.000; ENMIN  =  200.000 eV                                      
   RCLOC  =    0.701    cutoff for local pot                                    
   LCOR   =        T    correct aug charges                                     
   LPAW   =        T    paw PP                                                  
   EAUG   =  400.000                                                            
   RMAX   =    1.123    core radius for proj-oper                               
   RAUG   =    1.200    factor for augmentation sphere                          
   RDEP   =    1.112    radius for radial grids                                 
   RDEPT  =    0.926    core radius for aug-charge                              
                                                                                
   Atomic configuration                                                         
    2 entries                                                                   
     n  l   j            E        occ.                                          
     1  0  0.50        -6.4927   1.0000                                         
     2  1  0.50        -3.4015   0.0000                                         
   Description                                                                  
     l       E           TYP  RCUT    TYP  RCUT                                 
     0     -6.4927494     23  1.100                                             
     0      6.8029130     23  1.100                                             
     1     -4.0817478     23  1.100                                             
  local pseudopotential read in
  atomic valenz-charges read in
  non local Contribution for L=           0  read in
    real space projection operators read in
  non local Contribution for L=           0  read in
    real space projection operators read in
  non local Contribution for L=           1  read in
    real space projection operators read in
    PAW grid and wavefunctions read in

   number of l-projection  operators is LMAX  =           3
   number of lm-projection operators is LMMAX =           5

 POTCAR:    PAW_PBE C 08Apr2002                   
   VRHFIN =C: s2p2                                                              
   LEXCH  = PE                                                                  
   EATOM  =   147.1560 eV,   10.8157 Ry                                         
                                                                                
   TITEL  = PAW_PBE C 08Apr2002                                                 
   LULTRA =        F    use ultrasoft PP ?                                      
   IUNSCR =        1    unscreen: 0-lin 1-nonlin 2-no                           
   RPACOR =    1.200    partial core radius                                     
   POMASS =   12.011; ZVAL   =    4.000    mass and valenz                      
   RCORE  =    1.500    outmost cutoff radius                                   
   RWIGS  =    1.630; RWIGS  =    0.863    wigner-seitz radius (au A)           
   ENMAX  =  400.000; ENMIN  =  300.000 eV                                      
   ICORE  =        2    local potential                                         
   LCOR   =        T    correct aug charges                                     
   LPAW   =        T    paw PP                                                  
   EAUG   =  644.873                                                            
   DEXC   =    0.000                                                            
   RMAX   =    1.529    core radius for proj-oper                               
   RAUG   =    1.300    factor for augmentation sphere                          
   RDEP   =    1.501    radius for radial grids                                 
   RDEPT  =    1.300    core radius for aug-charge                              
                                                                                
   Atomic configuration                                                         
    4 entries                                                                   
     n  l   j            E        occ.                                          
     1  0  0.50      -273.3789   2.0000                                         
     2  0  0.50       -13.7508   2.0000                                         
     2  1  0.50        -5.2854   2.0000                                         
     3  2  1.50        -5.4423   0.0000                                         
   Description                                                                  
     l       E           TYP  RCUT    TYP  RCUT                                 
     0    -13.7508458     23  1.200                                             
     0     -8.2022199     23  1.200                                             
     1     -5.2854383     23  1.500                                             
     1     34.0145650     23  1.500                                             
     2     -5.4423304      7  1.500                                             
  local pseudopotential read in
  partial core-charges read in
  partial kinetic energy density read in
  atomic valenz-charges read in
  non local Contribution for L=           0  read in
    real space projection operators read in
  non local Contribution for L=           0  read in
    real space projection operators read in
  non local Contribution for L=           1  read in
    real space projection operators read in
  non local Contribution for L=           1  read in
    real space projection operators read in
    PAW grid and wavefunctions read in

   number of l-projection  operators is LMAX  =           4
   number of lm-projection operators is LMMAX =           8


 ----------------------------------------------------------------------------- 
|                                                                             |
|  ADVICE TO THIS USER RUNNING 'VASP/VAMP'   (HEAR YOUR MASTER'S VOICE ...):  |
|                                                                             |
|      You have a (more or less) 'small supercell' and for smaller cells      |
|      it is recommended  to use the reciprocal-space projection scheme!      |
|      The real space optimization is not  efficient for small cells and it   |
|      is also less accurate ...                                              |
|      Therefore set LREAL=.FALSE. in the  INCAR file                         |
|                                                                             |
 ----------------------------------------------------------------------------- 

 Optimization of the real space projectors (new method)

 maximal supplied QI-value         = 34.20
 optimisation between [QCUT,QGAM] = [  9.92, 20.18] = [ 27.55,114.04] Ry 
 Optimized for a Real-space Cutoff    1.34 Angstroem

   l    n(q)    QCUT    max X(q) W(low)/X(q) W(high)/X(q)  e(spline) 
   0      8     9.919    19.460    0.16E-03    0.20E-03    0.36E-06
   0      8     9.919    12.209    0.16E-03    0.20E-03    0.35E-06
   1      8     9.919     4.655    0.19E-03    0.46E-03    0.40E-06
 Optimization of the real space projectors (new method)

 maximal supplied QI-value         = 25.13
 optimisation between [QCUT,QGAM] = [ 10.05, 20.36] = [ 28.30,116.06] Ry 
 Optimized for a Real-space Cutoff    1.51 Angstroem

   l    n(q)    QCUT    max X(q) W(low)/X(q) W(high)/X(q)  e(spline) 
   0      9    10.053   115.676    0.19E-03    0.21E-03    0.38E-06
   0      9    10.053    87.132    0.19E-03    0.21E-03    0.38E-06
   1      9    10.053     4.429    0.87E-04    0.11E-03    0.39E-06
   1      9    10.053     2.733    0.59E-04    0.62E-04    0.43E-06
  PAW_PBE H 15Jun2001                   :
 energy of atom  1       EATOM=  -12.4884
 kinetic energy error for atom=    0.0098 (will be added to EATOM!!)
  PAW_PBE C 08Apr2002                   :
 energy of atom  2       EATOM= -147.1560
 kinetic energy error for atom=    0.0288 (will be added to EATOM!!)


 POSCAR: POSCAR file written by OVITO            
  positions in cartesian coordinates
  No initial velocities read in
 exchange correlation table for  LEXCH =        8
   RHO(1)=    0.500       N(1)  =     2000
   RHO(2)=  100.500       N(2)  =     4000



--------------------------------------------------------------------------------------------------------


 ion  position               nearest neighbor table
   1  0.341  0.486  0.458-   5 1.08
   2  0.590  0.556  0.570-   5 1.11
   3  0.547  0.517  0.290-   5 1.09
   4  0.534  0.301  0.453-   5 1.13
   5  0.503  0.468  0.446-   1 1.08   3 1.09   2 1.11   4 1.13


IMPORTANT INFORMATION: All symmetrisations will be switched off!
NOSYMM: (Re-)initialisation of all symmetry stuff for point group C_1.




Automatic generation of k-mesh.
 generate k-points for:    1    1    1
Space group operators:
 irot       det(A)        alpha          n_x          n_y          n_z        tau_x        tau_y        tau_z
    1     1.000000     0.000000     1.000000     0.000000     0.000000     0.000000     0.000000     0.000000
 
 Subroutine IBZKPT returns following result:
 ===========================================
 
 Found      1 irreducible k-points:
 
 Following reciprocal coordinates:
            Coordinates               Weight
  0.000000  0.000000  0.000000      1.000000
 
 Following cartesian coordinates:
            Coordinates               Weight
  0.000000  0.000000  0.000000      1.000000
 


--------------------------------------------------------------------------------------------------------




 Dimension of arrays:
   k-points           NKPTS =      1   k-points in BZ     NKDIM =      1   number of bands    NBANDS=      8
   number of dos      NEDOS =    301   number of ions     NIONS =      5
   non local maximal  LDIM  =      4   non local SUM 2l+1 LMDIM =      8
   total plane-waves  NPLWV =  96768
   max r-space proj   IRMAX =   5100   max aug-charges    IRDMAX=   4343
   dimension x,y,z NGX =    48 NGY =   48 NGZ =   42
   dimension x,y,z NGXF=    96 NGYF=   96 NGZF=   84
   support grid    NGXF=    96 NGYF=   96 NGZF=   84
   ions per type =               4   1
   NGX,Y,Z   is equivalent  to a cutoff of  12.15, 12.08, 10.98 a.u.
   NGXF,Y,Z  is equivalent  to a cutoff of  24.30, 24.17, 21.97 a.u.

 SYSTEM =  unknown system                          
 POSCAR =  POSCAR file written by OVITO            

 Startparameter for this run:
   NWRITE =      2    write-flag & timer
   PREC   = a         normal or accurate (medium, high low for compatibility)
   ISTART =      0    job   : 0-new  1-cont  2-samecut
   ICHARG =      2    charge: 1-file 2-atom 10-const
   ISPIN  =      1    spin polarized calculation?
   LNONCOLLINEAR =      F non collinear calculations
   LSORBIT =      F    spin-orbit coupling
   INIWAV =      1    electr: 0-lowe 1-rand  2-diag
   LASPH  =      F    aspherical Exc in radial PAW
   METAGGA=      F    non-selfconsistent MetaGGA calc.

 Electronic Relaxation 1
   ENCUT  =  400.0 eV  29.40 Ry    5.42 a.u.  10.71 10.77 10.37*2*pi/ulx,y,z
   ENINI  =  400.0     initial cutoff
   ENAUG  =  644.9 eV  augmentation charge cutoff
   NELM   =    120;   NELMIN=  4; NELMDL= -5     # of ELM steps 
   EDIFF  = 0.1E-05   stopping-criterion for ELM
   LREAL  =      T    real-space projection
   NLSPLINE    = F    spline interpolate recip. space projectors
   LCOMPAT=      F    compatible to vasp.4.4
   GGA_COMPAT  = T    GGA compatible to vasp.4.4-vasp.4.6
   LMAXPAW     = -100 max onsite density
   LMAXMIX     =    2 max onsite mixed and CHGCAR
   VOSKOWN=      0    Vosko Wilk Nusair interpolation
   ROPT   =   -0.00025  -0.00025
 Ionic relaxation
   EDIFFG = 0.1E-04   stopping-criterion for IOM
   NSW    =      0    number of steps for IOM
   NBLOCK =      1;   KBLOCK =      1    inner block; outer block 
   IBRION =     -1    ionic relax: 0-MD 1-quasi-New 2-CG
   NFREE  =      0    steps in history (QN), initial steepest desc. (CG)
   ISIF   =      2    stress and relaxation
   IWAVPR =     10    prediction:  0-non 1-charg 2-wave 3-comb
   ISYM   =      0    0-nonsym 1-usesym 2-fastsym
   LCORR  =      T    Harris-Foulkes like correction to forces

   POTIM  = 0.5000    time-step for ionic-motion
   TEIN   =    0.0    initial temperature
   TEBEG  =    0.0;   TEEND  =   0.0 temperature during run
   SMASS  =  -3.00    Nose mass-parameter (am)
   estimated Nose-frequenzy (Omega)   =  0.10E-29 period in steps =****** mass=  -0.986E-27a.u.
   SCALEE = 1.0000    scale energy and forces
   NPACO  =    256;   APACO  = 16.0  distance and # of slots for P.C.
   PSTRESS=    0.0 pullay stress

  Mass of Ions in am
   POMASS =   1.00 12.01
  Ionic Valenz
   ZVAL   =   1.00  4.00
  Atomic Wigner-Seitz radii
   RWIGS  =  -1.00 -1.00
  virtual crystal weights 
   VCA    =   1.00  1.00
   NELECT =       8.0000    total number of electrons
   NUPDOWN=      -1.0000    fix difference up-down

 DOS related values:
   EMIN   =  10.00;   EMAX   =-10.00  energy-range for DOS
   EFERMI =   0.00
   ISMEAR =     0;   SIGMA  =   0.05  broadening in eV -4-tet -1-fermi 0-gaus

 Electronic relaxation 2 (details)
   IALGO  =     38    algorithm
   LDIAG  =      T    sub-space diagonalisation (order eigenvalues)
   LSUBROT=      F    optimize rotation matrix (better conditioning)
   TURBO    =      0    0=normal 1=particle mesh
   IRESTART =      0    0=no restart 2=restart with 2 vectors
   NREBOOT  =      0    no. of reboots
   NMIN     =      0    reboot dimension
   EREF     =   0.00    reference energy to select bands
   IMIX   =      4    mixing-type and parameters
     AMIX     =   0.40;   BMIX     =  1.00
     AMIX_MAG =   1.60;   BMIX_MAG =  1.00
     AMIN     =   0.10
     WC   =   100.;   INIMIX=   1;  MIXPRE=   1;  MAXMIX= -45

 Intra band minimization:
   WEIMIN = 0.0000     energy-eigenvalue tresh-hold
   EBREAK =  0.31E-07  absolut break condition
   DEPER  =   0.30     relativ break condition  

   TIME   =   0.40     timestep for ELM

  volume/ion in A,a.u.               =      55.11       371.88
  Fermi-wavevector in a.u.,A,eV,Ry     =   0.503167  0.950848  3.444687  0.253177
  Thomas-Fermi vector in A             =   1.512551

 Write flags
   LWAVE        =      F    write WAVECAR
   LDOWNSAMPLE  =      F    k-point downsampling of WAVECAR
   LCHARG       =      F    write CHGCAR
   LVTOT        =      F    write LOCPOT, total local potential
   LVHAR        =      F    write LOCPOT, Hartree potential only
   LELF         =      F    write electronic localiz. function (ELF)
   LORBIT       =      0    0 simple, 1 ext, 2 COOP (PROOUT), +10 PAW based schemes


 Dipole corrections
   LMONO  =      F    monopole corrections only (constant potential shift)
   LDIPOL =      F    correct potential (dipole corrections)
   IDIPOL =      0    1-x, 2-y, 3-z, 4-all directions 
   EPSILON=  1.0000000 bulk dielectric constant

 Exchange correlation treatment:
   GGA     =    --    GGA type
   LEXCH   =     8    internal setting for exchange type
   VOSKOWN=      0    Vosko Wilk Nusair interpolation
   LHFCALC =     F    Hartree Fock is set to
   LHFONE  =     F    Hartree Fock one center treatment
   AEXX    =    0.0000 exact exchange contribution

 Linear response parameters
   LEPSILON=     F    determine dielectric tensor
   LRPA    =     F    only Hartree local field effects (RPA)
   LNABLA  =     F    use nabla operator in PAW spheres
   LVEL    =     F    velocity operator in full k-point grid
   LINTERFAST=   F  fast interpolation
   KINTER  =     0    interpolate to denser k-point grid
   CSHIFT  =0.1000    complex shift for real part using Kramers Kronig
   OMEGAMAX=  -1.0    maximum frequency
   DEG_THRESHOLD= 0.2000000E-02 threshold for treating states as degnerate
   RTIME   =   -0.100 relaxation time in fs
  (WPLASMAI=    0.000 imaginary part of plasma frequency in eV, 0.658/RTIME)
   DFIELD  = 0.0000000 0.0000000 0.0000000 field for delta impulse in time

 Orbital magnetization related:
   ORBITALMAG=     F  switch on orbital magnetization
   LCHIMAG   =     F  perturbation theory with respect to B field
   DQ        =  0.001000  dq finite difference perturbation B field
   LLRAUG    =     F  two centre corrections for induced B field



--------------------------------------------------------------------------------------------------------


 Static calculation
 charge density and potential will be updated during run
 non-spin polarized calculation
 Variant of blocked Davidson
 Davidson routine will perform the subspace rotation
 perform sub-space diagonalisation
    after iterative eigenvector-optimisation
 modified Broyden-mixing scheme, WC =      100.0
 initial mixing is a Kerker type mixing with AMIX =  0.4000 and BMIX =      1.0000
 Hartree-type preconditioning will be used
 using additional bands            4
 real space projection scheme for non local part
 use partial core corrections
 calculate Harris-corrections to forces   (improved forces if not selfconsistent)
 use gradient corrections 
 use of overlap-Matrix (Vanderbilt PP)
 Gauss-broadening in eV      SIGMA  =   0.05


--------------------------------------------------------------------------------------------------------


  energy-cutoff  :      400.00
  volume of cell :      275.54
      direct lattice vectors                 reciprocal lattice vectors
     6.568482400  0.000000000  0.000000000     0.152242168  0.004237419  0.004033138
    -0.183747000  6.601669800  0.000000000    -0.000000000  0.151476828  0.001657248
    -0.166397000 -0.069518400  6.354164100     0.000000000 -0.000000000  0.157377113

  length of vectors
     6.568482400  6.604226458  6.356722597     0.152354519  0.151485893  0.157377113



 k-points in units of 2pi/SCALE and weight: read from INCAR                         
   0.00000000  0.00000000  0.00000000       1.000

 k-points in reciprocal lattice and weights: read from INCAR                         
   0.00000000  0.00000000  0.00000000       1.000

 position of ions in fractional coordinates (direct lattice) 
   0.34065699  0.48630674  0.45835096
   0.59048812  0.55565985  0.56963704
   0.54712478  0.51654364  0.29010223
   0.53394178  0.30127882  0.45297810
   0.50338428  0.46809118  0.44608026

 position of ions in cartesian coordinates  (Angst):
   2.07197380  3.17857270  2.91243720
   3.68172410  3.62868260  3.61956720
   3.45059400  3.38988310  1.84335720
   3.37645390  1.95745300  2.87829720
   3.14623400  3.05917260  2.83446720



--------------------------------------------------------------------------------------------------------


 k-point  1 :   0.0000 0.0000 0.0000  plane waves:    5005

 maximum and minimum number of plane-waves per node :      5005     5005

 maximum number of plane-waves:      5005
 maximum index in each direction: 
   IXMAX=   10   IYMAX=   10   IZMAX=   10
   IXMIN=  -10   IYMIN=  -10   IZMIN=  -10


 serial   3D FFT for wavefunctions
 parallel 3D FFT for charge:
    minimum data exchange during FFTs selected (reduces bandwidth)


 total amount of memory used by VASP MPI-rank0   107014. kBytes
=======================================================================

   base      :      30000. kBytes
   nonlr-proj:       1379. kBytes
   fftplans  :      26980. kBytes
   grid      :      47996. kBytes
   one-center:         15. kBytes
   wavefun   :        644. kBytes

     INWAV:  cpu time    0.0000: real time    0.0000
 Broyden mixing: mesh for mixing (old mesh)
   NGX = 21   NGY = 21   NGZ = 21
  (NGX  = 96   NGY  = 96   NGZ  = 84)
  gives a total of   9261 points

 initial charge density was supplied:
 charge density of overlapping atoms calculated
 number of electron       8.0000000 magnetization 
 keeping initial charge density in first step


--------------------------------------------------------------------------------------------------------


 Maximum index for non-local projection operator         4898
 Maximum index for augmentation-charges         4021 (set IRDMAX)


--------------------------------------------------------------------------------------------------------


 First call to EWALD:  gamma=   0.272
 Maximum number of real-space cells 3x 3x 3
 Maximum number of reciprocal cells 3x 3x 3

    FEWALD:  cpu time    0.0007: real time    0.0007


--------------------------------------- Iteration      1(   1)  ---------------------------------------


    POTLOK:  cpu time    0.5629: real time    0.5645
    SETDIJ:  cpu time    0.0070: real time    0.0070
     EDDAV:  cpu time    0.1361: real time    0.1364
       DOS:  cpu time    0.0001: real time    0.0001
    --------------------------------------------
      LOOP:  cpu time    0.7060: real time    0.7080

 eigenvalue-minimisations  :    16
 total energy-change (2. order) : 0.4070524E+02  (-0.2309841E+03)
 number of electron       8.0000000 magnetization 
 augmentation part        8.0000000 magnetization 

 Free energy of the ion-electron system (eV)
  ---------------------------------------------------
  alpha Z        PSCENC =         0.87920053
  Ewald energy   TEWEN  =        60.72091828
  -Hartree energ DENC   =      -181.64671755
  -exchange      EXHF   =         0.00000000
  -V(xc)+E(xc)   XCENC  =        21.98616229
  PAW double counting   =       117.05815612     -117.66307307
  entropy T*S    EENTRO =        -0.00000000
  eigenvalues    EBANDS =       -57.67116229
  atomic energy  EATOM  =       197.04175453
  Solvation  Ediel_sol  =         0.00000000
  ---------------------------------------------------
  free energy    TOTEN  =        40.70523883 eV

  energy without entropy =       40.70523883  energy(sigma->0) =       40.70523883


--------------------------------------------------------------------------------------------------------




--------------------------------------- Iteration      1(   2)  ---------------------------------------


     EDDAV:  cpu time    0.1670: real time    0.1676
       DOS:  cpu time    0.0001: real time    0.0001
    --------------------------------------------
      LOOP:  cpu time    0.1671: real time    0.1676

 eigenvalue-minimisations  :    24
 total energy-change (2. order) :-0.5983290E+02  (-0.5983290E+02)
 number of electron       8.0000000 magnetization 
 augmentation part        8.0000000 magnetization 

 Free energy of the ion-electron system (eV)
  ---------------------------------------------------
  alpha Z        PSCENC =         0.87920053
  Ewald energy   TEWEN  =        60.72091828
  -Hartree energ DENC   =      -181.64671755
  -exchange      EXHF   =         0.00000000
  -V(xc)+E(xc)   XCENC  =        21.98616229
  PAW double counting   =       117.05815612     -117.66307307
  entropy T*S    EENTRO =        -0.00000000
  eigenvalues    EBANDS =      -117.50406319
  atomic energy  EATOM  =       197.04175453
  Solvation  Ediel_sol  =         0.00000000
  ---------------------------------------------------
  free energy    TOTEN  =       -19.12766206 eV

  energy without entropy =      -19.12766206  energy(sigma->0) =      -19.12766206


--------------------------------------------------------------------------------------------------------




--------------------------------------- Iteration      1(   3)  ---------------------------------------


     EDDAV:  cpu time    0.1385: real time    0.1388
       DOS:  cpu time    0.0001: real time    0.0001
    --------------------------------------------
      LOOP:  cpu time    0.1385: real time    0.1389

 eigenvalue-minimisations  :    16
 total energy-change (2. order) :-0.8018754E+01  (-0.8018754E+01)
 number of electron       8.0000000 magnetization 
 augmentation part        8.0000000 magnetization 

 Free energy of the ion-electron system (eV)
  ---------------------------------------------------
  alpha Z        PSCENC =         0.87920053
  Ewald energy   TEWEN  =        60.72091828
  -Hartree energ DENC   =      -181.64671755
  -exchange      EXHF   =         0.00000000
  -V(xc)+E(xc)   XCENC  =        21.98616229
  PAW double counting   =       117.05815612     -117.66307307
  entropy T*S    EENTRO =        -0.00000000
  eigenvalues    EBANDS =      -125.52281697
  atomic energy  EATOM  =       197.04175453
  Solvation  Ediel_sol  =         0.00000000
  ---------------------------------------------------
  free energy    TOTEN  =       -27.14641585 eV

  energy without entropy =      -27.14641585  energy(sigma->0) =      -27.14641585


--------------------------------------------------------------------------------------------------------




--------------------------------------- Iteration      1(   4)  ---------------------------------------


     EDDAV:  cpu time    0.2851: real time    0.2857
       DOS:  cpu time    0.0009: real time    0.0009
    --------------------------------------------
      LOOP:  cpu time    0.2859: real time    0.2866

 eigenvalue-minimisations  :    32
 total energy-change (2. order) :-0.3102449E+00  (-0.3102449E+00)
 number of electron       8.0000000 magnetization 
 augmentation part        8.0000000 magnetization 

 Free energy of the ion-electron system (eV)
  ---------------------------------------------------
  alpha Z        PSCENC =         0.87920053
  Ewald energy   TEWEN  =        60.72091828
  -Hartree energ DENC   =      -181.64671755
  -exchange      EXHF   =         0.00000000
  -V(xc)+E(xc)   XCENC  =        21.98616229
  PAW double counting   =       117.05815612     -117.66307307
  entropy T*S    EENTRO =        -0.00000000
  eigenvalues    EBANDS =      -125.83306188
  atomic energy  EATOM  =       197.04175453
  Solvation  Ediel_sol  =         0.00000000
  ---------------------------------------------------
  free energy    TOTEN  =       -27.45666075 eV

  energy without entropy =      -27.45666075  energy(sigma->0) =      -27.45666075


--------------------------------------------------------------------------------------------------------




--------------------------------------- Iteration      1(   5)  ---------------------------------------


     EDDAV:  cpu time    0.2227: real time    0.2232
       DOS:  cpu time    0.0001: real time    0.0001
    CHARGE:  cpu time    0.0392: real time    0.0393
    MIXING:  cpu time    0.0099: real time    0.0099
    --------------------------------------------
      LOOP:  cpu time    0.2718: real time    0.2725

 eigenvalue-minimisations  :    32
 total energy-change (2. order) :-0.1153050E-03  (-0.1153050E-03)
 number of electron       8.0000000 magnetization 
 augmentation part        0.2238496 magnetization 

 Broyden mixing:
  rms(total) = 0.86507E+00    rms(broyden)= 0.86480E+00
  rms(prec ) = 0.15912E+01
  weight for this iteration     100.00

 Free energy of the ion-electron system (eV)
  ---------------------------------------------------
  alpha Z        PSCENC =         0.87920053
  Ewald energy   TEWEN  =        60.72091828
  -Hartree energ DENC   =      -181.64671755
  -exchange      EXHF   =         0.00000000
  -V(xc)+E(xc)   XCENC  =        21.98616229
  PAW double counting   =       117.05815612     -117.66307307
  entropy T*S    EENTRO =        -0.00000000
  eigenvalues    EBANDS =      -125.83317718
  atomic energy  EATOM  =       197.04175453
  Solvation  Ediel_sol  =         0.00000000
  ---------------------------------------------------
  free energy    TOTEN  =       -27.45677606 eV

  energy without entropy =      -27.45677606  energy(sigma->0) =      -27.45677606


--------------------------------------------------------------------------------------------------------




--------------------------------------- Iteration      1(   6)  ---------------------------------------


    POTLOK:  cpu time    0.5169: real time    0.5181
    SETDIJ:  cpu time    0.0070: real time    0.0070
     EDDAV:  cpu time    0.1528: real time    0.1531
       DOS:  cpu time    0.0001: real time    0.0001
    CHARGE:  cpu time    0.0321: real time    0.0322
    MIXING:  cpu time    0.0123: real time    0.0123
    --------------------------------------------
      LOOP:  cpu time    0.7212: real time    0.7230

 eigenvalue-minimisations  :    16
 total energy-change (2. order) : 0.2865156E+01  (-0.8698024E+00)
 number of electron       8.0000001 magnetization 
 augmentation part        0.1961138 magnetization 

 Broyden mixing:
  rms(total) = 0.42801E+00    rms(broyden)= 0.42789E+00
  rms(prec ) = 0.67068E+00
  weight for this iteration     100.00

 eigenvalues of (default mixing * dielectric matrix)
  average eigenvalue GAMMA=   1.2287
  1.2287

 Free energy of the ion-electron system (eV)
  ---------------------------------------------------
  alpha Z        PSCENC =         0.87920053
  Ewald energy   TEWEN  =        60.72091828
  -Hartree energ DENC   =      -201.13821006
  -exchange      EXHF   =         0.00000000
  -V(xc)+E(xc)   XCENC  =        23.18772096
  PAW double counting   =       237.07847722     -237.85608350
  entropy T*S    EENTRO =        -0.00000000
  eigenvalues    EBANDS =      -104.50539827
  atomic energy  EATOM  =       197.04175453
  Solvation  Ediel_sol  =         0.00000000
  ---------------------------------------------------
  free energy    TOTEN  =       -24.59162032 eV

  energy without entropy =      -24.59162032  energy(sigma->0) =      -24.59162032


--------------------------------------------------------------------------------------------------------




--------------------------------------- Iteration      1(   7)  ---------------------------------------


    POTLOK:  cpu time    0.5871: real time    0.5885
    SETDIJ:  cpu time    0.0070: real time    0.0070
     EDDAV:  cpu time    0.2568: real time    0.2574
       DOS:  cpu time    0.0001: real time    0.0001
    CHARGE:  cpu time    0.0320: real time    0.0321
    MIXING:  cpu time    0.0133: real time    0.0133
    --------------------------------------------
      LOOP:  cpu time    0.8963: real time    0.8985

 eigenvalue-minimisations  :    32
 total energy-change (2. order) : 0.4849555E+00  (-0.8474849E-01)
 number of electron       8.0000001 magnetization 
 augmentation part        0.1875632 magnetization 

 Broyden mixing:
  rms(total) = 0.23221E+00    rms(broyden)= 0.23215E+00
  rms(prec ) = 0.33571E+00
  weight for this iteration     100.00

 eigenvalues of (default mixing * dielectric matrix)
  average eigenvalue GAMMA=   1.8378
  1.2807  2.3948

 Free energy of the ion-electron system (eV)
  ---------------------------------------------------
  alpha Z        PSCENC =         0.87920053
  Ewald energy   TEWEN  =        60.72091828
  -Hartree energ DENC   =      -211.34419201
  -exchange      EXHF   =         0.00000000
  -V(xc)+E(xc)   XCENC  =        23.97896423
  PAW double counting   =       356.80223515     -357.61157291
  entropy T*S    EENTRO =        -0.00000000
  eigenvalues    EBANDS =       -94.57397257
  atomic energy  EATOM  =       197.04175453
  Solvation  Ediel_sol  =         0.00000000
  ---------------------------------------------------
  free energy    TOTEN  =       -24.10666478 eV

  energy without entropy =      -24.10666478  energy(sigma->0) =      -24.10666478


--------------------------------------------------------------------------------------------------------




--------------------------------------- Iteration      1(   8)  ---------------------------------------


    POTLOK:  cpu time    0.5279: real time    0.5291
    SETDIJ:  cpu time    0.0071: real time    0.0071
     EDDAV:  cpu time    0.2337: real time    0.2342
       DOS:  cpu time    0.0001: real time    0.0001
    CHARGE:  cpu time    0.0254: real time    0.0255
    MIXING:  cpu time    0.0119: real time    0.0119
    --------------------------------------------
      LOOP:  cpu time    0.8060: real time    0.8080

 eigenvalue-minimisations  :    32
 total energy-change (2. order) : 0.1559424E+00  (-0.2093976E-01)
 number of electron       8.0000001 magnetization 
 augmentation part        0.1851376 magnetization 

 Broyden mixing:
  rms(total) = 0.41661E-01    rms(broyden)= 0.41639E-01
  rms(prec ) = 0.72285E-01
  weight for this iteration     100.00

 eigenvalues of (default mixing * dielectric matrix)
  average eigenvalue GAMMA=   1.4141
  2.2622  1.2867  0.6934

 Free energy of the ion-electron system (eV)
  ---------------------------------------------------
  alpha Z        PSCENC =         0.87920053
  Ewald energy   TEWEN  =        60.72091828
  -Hartree energ DENC   =      -218.42817783
  -exchange      EXHF   =         0.00000000
  -V(xc)+E(xc)   XCENC  =        24.65030467
  PAW double counting   =       487.75998839     -488.54725018
  entropy T*S    EENTRO =        -0.00000000
  eigenvalues    EBANDS =       -88.02746075
  atomic energy  EATOM  =       197.04175453
  Solvation  Ediel_sol  =         0.00000000
  ---------------------------------------------------
  free energy    TOTEN  =       -23.95072237 eV

  energy without entropy =      -23.95072237  energy(sigma->0) =      -23.95072237


--------------------------------------------------------------------------------------------------------




--------------------------------------- Iteration      1(   9)  ---------------------------------------


    POTLOK:  cpu time    0.4819: real time    0.4830
    SETDIJ:  cpu time    0.0063: real time    0.0063
     EDDAV:  cpu time    0.1239: real time    0.1242
       DOS:  cpu time    0.0001: real time    0.0001
    CHARGE:  cpu time    0.0231: real time    0.0231
    MIXING:  cpu time    0.0111: real time    0.0111
    --------------------------------------------
      LOOP:  cpu time    0.6463: real time    0.6478

 eigenvalue-minimisations  :    16
 total energy-change (2. order) :-0.2439872E-02  (-0.2058960E-03)
 number of electron       8.0000001 magnetization 
 augmentation part        0.1848765 magnetization 

 Broyden mixing:
  rms(total) = 0.21555E-01    rms(broyden)= 0.21553E-01
  rms(prec ) = 0.50700E-01
  weight for this iteration     100.00

 eigenvalues of (default mixing * dielectric matrix)
  average eigenvalue GAMMA=   1.8494
  2.5809  2.5809  1.1179  1.1179

 Free energy of the ion-electron system (eV)
  ---------------------------------------------------
  alpha Z        PSCENC =         0.87920053
  Ewald energy   TEWEN  =        60.72091828
  -Hartree energ DENC   =      -218.65417832
  -exchange      EXHF   =         0.00000000
  -V(xc)+E(xc)   XCENC  =        24.64199687
  PAW double counting   =       474.12906581     -474.91732248
  entropy T*S    EENTRO =        -0.00000000
  eigenvalues    EBANDS =       -87.79459745
  atomic energy  EATOM  =       197.04175453
  Solvation  Ediel_sol  =         0.00000000
  ---------------------------------------------------
  free energy    TOTEN  =       -23.95316224 eV

  energy without entropy =      -23.95316224  energy(sigma->0) =      -23.95316224


--------------------------------------------------------------------------------------------------------




--------------------------------------- Iteration      1(  10)  ---------------------------------------


    POTLOK:  cpu time    0.4942: real time    0.4953
    SETDIJ:  cpu time    0.0075: real time    0.0075
     EDDAV:  cpu time    0.1534: real time    0.1538
       DOS:  cpu time    0.0001: real time    0.0001
    CHARGE:  cpu time    0.0330: real time    0.0331
    MIXING:  cpu time    0.0136: real time    0.0136
    --------------------------------------------
      LOOP:  cpu time    0.7019: real time    0.7035

 eigenvalue-minimisations  :    16
 total energy-change (2. order) :-0.4534907E-02  (-0.3213139E-03)
 number of electron       8.0000001 magnetization 
 augmentation part        0.1845891 magnetization 

 Broyden mixing:
  rms(total) = 0.67251E-02    rms(broyden)= 0.67242E-02
  rms(prec ) = 0.12677E-01
  weight for this iteration     100.00

 eigenvalues of (default mixing * dielectric matrix)
  average eigenvalue GAMMA=   1.8454
  3.3268  2.3566  1.1089  1.1089  1.3260

 Free energy of the ion-electron system (eV)
  ---------------------------------------------------
  alpha Z        PSCENC =         0.87920053
  Ewald energy   TEWEN  =        60.72091828
  -Hartree energ DENC   =      -220.04438747
  -exchange      EXHF   =         0.00000000
  -V(xc)+E(xc)   XCENC  =        24.71214147
  PAW double counting   =       459.08363511     -459.86742551
  entropy T*S    EENTRO =        -0.00000000
  eigenvalues    EBANDS =       -86.48353408
  atomic energy  EATOM  =       197.04175453
  Solvation  Ediel_sol  =         0.00000000
  ---------------------------------------------------
  free energy    TOTEN  =       -23.95769715 eV

  energy without entropy =      -23.95769715  energy(sigma->0) =      -23.95769715


--------------------------------------------------------------------------------------------------------




--------------------------------------- Iteration      1(  11)  ---------------------------------------


    POTLOK:  cpu time    0.5424: real time    0.5437
    SETDIJ:  cpu time    0.0066: real time    0.0066
     EDDAV:  cpu time    0.1300: real time    0.1304
       DOS:  cpu time    0.0001: real time    0.0001
    CHARGE:  cpu time    0.0253: real time    0.0254
    MIXING:  cpu time    0.0113: real time    0.0113
    --------------------------------------------
      LOOP:  cpu time    0.7158: real time    0.7175

 eigenvalue-minimisations  :    16
 total energy-change (2. order) :-0.2527713E-02  (-0.4373233E-04)
 number of electron       8.0000001 magnetization 
 augmentation part        0.1844018 magnetization 

 Broyden mixing:
  rms(total) = 0.32714E-02    rms(broyden)= 0.32710E-02
  rms(prec ) = 0.66930E-02
  weight for this iteration     100.00

 eigenvalues of (default mixing * dielectric matrix)
  average eigenvalue GAMMA=   2.0915
  4.0412  2.9455  2.2755  1.2256  1.0305  1.0305

 Free energy of the ion-electron system (eV)
  ---------------------------------------------------
  alpha Z        PSCENC =         0.87920053
  Ewald energy   TEWEN  =        60.72091828
  -Hartree energ DENC   =      -220.34074935
  -exchange      EXHF   =         0.00000000
  -V(xc)+E(xc)   XCENC  =        24.72678879
  PAW double counting   =       461.09736830     -461.88193979
  entropy T*S    EENTRO =        -0.00000000
  eigenvalues    EBANDS =       -86.20356615
  atomic energy  EATOM  =       197.04175453
  Solvation  Ediel_sol  =         0.00000000
  ---------------------------------------------------
  free energy    TOTEN  =       -23.96022486 eV

  energy without entropy =      -23.96022486  energy(sigma->0) =      -23.96022486


--------------------------------------------------------------------------------------------------------




--------------------------------------- Iteration      1(  12)  ---------------------------------------


    POTLOK:  cpu time    0.4757: real time    0.4768
    SETDIJ:  cpu time    0.0072: real time    0.0072
     EDDAV:  cpu time    0.1326: real time    0.1329
       DOS:  cpu time    0.0001: real time    0.0001
    CHARGE:  cpu time    0.0278: real time    0.0278
    MIXING:  cpu time    0.0122: real time    0.0122
    --------------------------------------------
      LOOP:  cpu time    0.6555: real time    0.6571

 eigenvalue-minimisations  :    16
 total energy-change (2. order) :-0.2067322E-02  (-0.2104742E-04)
 number of electron       8.0000001 magnetization 
 augmentation part        0.1844674 magnetization 

 Broyden mixing:
  rms(total) = 0.12169E-02    rms(broyden)= 0.12168E-02
  rms(prec ) = 0.19429E-02
  weight for this iteration     100.00

 eigenvalues of (default mixing * dielectric matrix)
  average eigenvalue GAMMA=   2.0438
  4.2252  2.5019  2.5019  1.7808  1.0405  1.0405  1.2162

 Free energy of the ion-electron system (eV)
  ---------------------------------------------------
  alpha Z        PSCENC =         0.87920053
  Ewald energy   TEWEN  =        60.72091828
  -Hartree energ DENC   =      -220.25506242
  -exchange      EXHF   =         0.00000000
  -V(xc)+E(xc)   XCENC  =        24.71664996
  PAW double counting   =       462.02216357     -462.80682824
  entropy T*S    EENTRO =        -0.00000000
  eigenvalues    EBANDS =       -86.28108838
  atomic energy  EATOM  =       197.04175453
  Solvation  Ediel_sol  =         0.00000000
  ---------------------------------------------------
  free energy    TOTEN  =       -23.96229218 eV

  energy without entropy =      -23.96229218  energy(sigma->0) =      -23.96229218


--------------------------------------------------------------------------------------------------------




--------------------------------------- Iteration      1(  13)  ---------------------------------------


    POTLOK:  cpu time    0.4992: real time    0.5003
    SETDIJ:  cpu time    0.0064: real time    0.0064
     EDDAV:  cpu time    0.1337: real time    0.1340
       DOS:  cpu time    0.0001: real time    0.0001
    CHARGE:  cpu time    0.0264: real time    0.0265
    MIXING:  cpu time    0.0125: real time    0.0125
    --------------------------------------------
      LOOP:  cpu time    0.6782: real time    0.6798

 eigenvalue-minimisations  :    16
 total energy-change (2. order) :-0.3777742E-03  (-0.4317352E-05)
 number of electron       8.0000001 magnetization 
 augmentation part        0.1844604 magnetization 

 Broyden mixing:
  rms(total) = 0.95946E-03    rms(broyden)= 0.95931E-03
  rms(prec ) = 0.13884E-02
  weight for this iteration     100.00

 eigenvalues of (default mixing * dielectric matrix)
  average eigenvalue GAMMA=   2.0866
  4.6457  3.0833  2.3120  2.3120  1.2442  1.0472  1.0472  1.0013

 Free energy of the ion-electron system (eV)
  ---------------------------------------------------
  alpha Z        PSCENC =         0.87920053
  Ewald energy   TEWEN  =        60.72091828
  -Hartree energ DENC   =      -220.30055463
  -exchange      EXHF   =         0.00000000
  -V(xc)+E(xc)   XCENC  =        24.72036235
  PAW double counting   =       462.26639950     -463.05067973
  entropy T*S    EENTRO =        -0.00000000
  eigenvalues    EBANDS =       -86.24007079
  atomic energy  EATOM  =       197.04175453
  Solvation  Ediel_sol  =         0.00000000
  ---------------------------------------------------
  free energy    TOTEN  =       -23.96266996 eV

  energy without entropy =      -23.96266996  energy(sigma->0) =      -23.96266996


--------------------------------------------------------------------------------------------------------




--------------------------------------- Iteration      1(  14)  ---------------------------------------


    POTLOK:  cpu time    0.5020: real time    0.5031
    SETDIJ:  cpu time    0.0063: real time    0.0063
     EDDAV:  cpu time    0.2341: real time    0.2346
       DOS:  cpu time    0.0001: real time    0.0001
    CHARGE:  cpu time    0.0266: real time    0.0267
    MIXING:  cpu time    0.0134: real time    0.0134
    --------------------------------------------
      LOOP:  cpu time    0.7824: real time    0.7842

 eigenvalue-minimisations  :    32
 total energy-change (2. order) :-0.8354415E-04  (-0.6510383E-06)
 number of electron       8.0000001 magnetization 
 augmentation part        0.1844554 magnetization 

 Broyden mixing:
  rms(total) = 0.16892E-03    rms(broyden)= 0.16883E-03
  rms(prec ) = 0.28748E-03
  weight for this iteration     100.00

 eigenvalues of (default mixing * dielectric matrix)
  average eigenvalue GAMMA=   2.1026
  4.7858  3.4400  2.6675  2.2513  1.0165  1.0908  1.0908  1.2902  1.2902

 Free energy of the ion-electron system (eV)
  ---------------------------------------------------
  alpha Z        PSCENC =         0.87920053
  Ewald energy   TEWEN  =        60.72091828
  -Hartree energ DENC   =      -220.28155263
  -exchange      EXHF   =         0.00000000
  -V(xc)+E(xc)   XCENC  =        24.71815735
  PAW double counting   =       461.88718102     -462.67159877
  entropy T*S    EENTRO =        -0.00000000
  eigenvalues    EBANDS =       -86.25681380
  atomic energy  EATOM  =       197.04175453
  Solvation  Ediel_sol  =         0.00000000
  ---------------------------------------------------
  free energy    TOTEN  =       -23.96275350 eV

  energy without entropy =      -23.96275350  energy(sigma->0) =      -23.96275350


--------------------------------------------------------------------------------------------------------




--------------------------------------- Iteration      1(  15)  ---------------------------------------


    POTLOK:  cpu time    0.5328: real time    0.5341
    SETDIJ:  cpu time    0.0070: real time    0.0070
     EDDAV:  cpu time    0.1329: real time    0.1332
       DOS:  cpu time    0.0001: real time    0.0001
    CHARGE:  cpu time    0.0267: real time    0.0267
    MIXING:  cpu time    0.0139: real time    0.0139
    --------------------------------------------
      LOOP:  cpu time    0.7134: real time    0.7151

 eigenvalue-minimisations  :    16
 total energy-change (2. order) :-0.2524893E-04  (-0.1423381E-06)
 number of electron       8.0000001 magnetization 
 augmentation part        0.1844571 magnetization 

 Broyden mixing:
  rms(total) = 0.11329E-03    rms(broyden)= 0.11329E-03
  rms(prec ) = 0.16413E-03
  weight for this iteration     100.00

 eigenvalues of (default mixing * dielectric matrix)
  average eigenvalue GAMMA=   2.1005
  4.9095  3.6682  2.6340  2.3733  2.0316  1.2467  1.0941  1.0030  1.0221  1.0221

 Free energy of the ion-electron system (eV)
  ---------------------------------------------------
  alpha Z        PSCENC =         0.87920053
  Ewald energy   TEWEN  =        60.72091828
  -Hartree energ DENC   =      -220.28033560
  -exchange      EXHF   =         0.00000000
  -V(xc)+E(xc)   XCENC  =        24.71816772
  PAW double counting   =       461.85342117     -462.63781395
  entropy T*S    EENTRO =        -0.00000000
  eigenvalues    EBANDS =       -86.25809143
  atomic energy  EATOM  =       197.04175453
  Solvation  Ediel_sol  =         0.00000000
  ---------------------------------------------------
  free energy    TOTEN  =       -23.96277875 eV

  energy without entropy =      -23.96277875  energy(sigma->0) =      -23.96277875


--------------------------------------------------------------------------------------------------------




--------------------------------------- Iteration      1(  16)  ---------------------------------------


    POTLOK:  cpu time    0.5574: real time    0.5587
    SETDIJ:  cpu time    0.0074: real time    0.0074
     EDDAV:  cpu time    0.2000: real time    0.2005
       DOS:  cpu time    0.0001: real time    0.0001
    CHARGE:  cpu time    0.0273: real time    0.0274
    MIXING:  cpu time    0.0136: real time    0.0137
    --------------------------------------------
      LOOP:  cpu time    0.8058: real time    0.8077

 eigenvalue-minimisations  :    24
 total energy-change (2. order) :-0.3386692E-05  (-0.1850342E-07)
 number of electron       8.0000001 magnetization 
 augmentation part        0.1844571 magnetization 

 Broyden mixing:
  rms(total) = 0.24791E-04    rms(broyden)= 0.24779E-04
  rms(prec ) = 0.45317E-04
  weight for this iteration     100.00

 eigenvalues of (default mixing * dielectric matrix)
  average eigenvalue GAMMA=   2.0743
  4.9321  3.6696  2.5226  2.5226  1.8366  1.8366  1.2830  0.9709  1.0424  1.0424
  1.1589

 Free energy of the ion-electron system (eV)
  ---------------------------------------------------
  alpha Z        PSCENC =         0.87920053
  Ewald energy   TEWEN  =        60.72091828
  -Hartree energ DENC   =      -220.27801063
  -exchange      EXHF   =         0.00000000
  -V(xc)+E(xc)   XCENC  =        24.71793315
  PAW double counting   =       461.80106406     -462.58548505
  entropy T*S    EENTRO =        -0.00000000
  eigenvalues    EBANDS =       -86.26015701
  atomic energy  EATOM  =       197.04175453
  Solvation  Ediel_sol  =         0.00000000
  ---------------------------------------------------
  free energy    TOTEN  =       -23.96278214 eV

  energy without entropy =      -23.96278214  energy(sigma->0) =      -23.96278214


--------------------------------------------------------------------------------------------------------




--------------------------------------- Iteration      1(  17)  ---------------------------------------


    POTLOK:  cpu time    0.5517: real time    0.5530
    SETDIJ:  cpu time    0.0075: real time    0.0075
     EDDAV:  cpu time    0.1468: real time    0.1471
       DOS:  cpu time    0.0001: real time    0.0001
    --------------------------------------------
      LOOP:  cpu time    0.7061: real time    0.7077

 eigenvalue-minimisations  :    16
 total energy-change (2. order) :-0.8716839E-06  (-0.7776968E-08)
 number of electron       8.0000001 magnetization 
 augmentation part        0.1844571 magnetization 

 Free energy of the ion-electron system (eV)
  ---------------------------------------------------
  alpha Z        PSCENC =         0.87920053
  Ewald energy   TEWEN  =        60.72091828
  -Hartree energ DENC   =      -220.27831361
  -exchange      EXHF   =         0.00000000
  -V(xc)+E(xc)   XCENC  =        24.71792677
  PAW double counting   =       461.80107786     -462.58551743
  entropy T*S    EENTRO =        -0.00000000
  eigenvalues    EBANDS =       -86.25982995
  atomic energy  EATOM  =       197.04175453
  Solvation  Ediel_sol  =         0.00000000
  ---------------------------------------------------
  free energy    TOTEN  =       -23.96278301 eV

  energy without entropy =      -23.96278301  energy(sigma->0) =      -23.96278301


--------------------------------------------------------------------------------------------------------




 average (electrostatic) potential at core
  the test charge radii are     0.5201  0.6991
  (the norm of the test charge is              1.0000)
       1 -41.2189       2 -41.0920       3 -41.1572       4 -40.8887       5 -57.5999



 E-fermi :  -8.4309     XC(G=0):  -2.1062     alpha+bet : -0.7646


 k-point     1 :       0.0000    0.0000    0.0000
  band No.  band energies     occupation 
      1     -16.4780      2.00000
      2      -9.0430      2.00000
      3      -8.9110      2.00000
      4      -8.6979      2.00000
      5      -0.7896      0.00000
      6       1.8179      0.00000
      7       1.9594      0.00000
      8       2.7016      0.00000


--------------------------------------------------------------------------------------------------------


 soft charge-density along one line, spin component           1
         0         1         2         3         4         5         6         7         8         9
 total charge-density along one line

 pseudopotential strength for first ion, spin component:           1
 -2.337  -4.026   0.000   0.000  -0.002
 -4.026  -6.849   0.001   0.000  -0.006
  0.000   0.001  -0.339   0.000  -0.001
  0.000   0.000   0.000  -0.339  -0.000
 -0.002  -0.006  -0.001  -0.000  -0.334
 total augmentation occupancy for first ion, spin component:           1
  3.598  -0.646  -0.048  -0.031   0.443
 -0.646   0.131   0.009   0.006  -0.082
 -0.048   0.009   0.010   0.000  -0.005
 -0.031   0.006   0.000   0.010  -0.003
  0.443  -0.082  -0.005  -0.003   0.055


------------------------ aborting loop because EDIFF is reached ----------------------------------------


    CHARGE:  cpu time    0.0322: real time    0.0322
    FORLOC:  cpu time    0.0367: real time    0.0368
    FORNL :  cpu time    0.0627: real time    0.0628
    STRESS:  cpu time    0.2222: real time    0.2228
    FORCOR:  cpu time    0.5389: real time    0.5402
    FORHAR:  cpu time    0.1758: real time    0.1762
    MIXING:  cpu time    0.0140: real time    0.0140
    OFIELD:  cpu time    0.0000: real time    0.0000

  FORCE on cell =-STRESS in cart. coord.  units (eV):
  Direction    XX          YY          ZZ          XY          YZ          ZX
  --------------------------------------------------------------------------------------
  Alpha Z     0.87920     0.87920     0.87920
  Ewald      19.33080    16.11661    25.27342     0.83887     2.53971     0.21072
  Hartree    71.62943    71.15679    77.49147    -0.24216     0.53444    -0.27828
  E(xc)     -27.18607   -27.17849   -27.18330     0.00628     0.01768     0.00785
  Local    -149.96155  -147.42788  -161.99374    -0.29665    -2.62214     0.13713
  n-local   -15.87921   -15.74321   -15.86220    -0.00025     0.04842     0.05503
  augment     0.11252     0.12388     0.11507    -0.00237    -0.00242     0.00040
  Kinetic   101.12927   100.77870   101.04258    -0.35542    -0.95595    -0.48762
  Fock        0.00000     0.00000     0.00000     0.00000     0.00000     0.00000
  -------------------------------------------------------------------------------------
  Total       0.05439    -1.29440    -0.23751    -0.05169    -0.44025    -0.35477
  in kB       0.31625    -7.52664    -1.38108    -0.30058    -2.55995    -2.06290
  external pressure =       -2.86 kB  Pullay stress =        0.00 kB


 VOLUME and BASIS-vectors are now :
 -----------------------------------------------------------------------------
  energy-cutoff  :      400.00
  volume of cell :      275.54
      direct lattice vectors                 reciprocal lattice vectors
     6.568482400  0.000000000  0.000000000     0.152242168  0.004237419  0.004033138
    -0.183747000  6.601669800  0.000000000    -0.000000000  0.151476828  0.001657248
    -0.166397000 -0.069518400  6.354164100     0.000000000 -0.000000000  0.157377113

  length of vectors
     6.568482400  6.604226458  6.356722597     0.152354519  0.151485893  0.157377113


 FORCES acting on ions
    electron-ion (+dipol)            ewald-force                    non-local-force                 convergence-correction
 -----------------------------------------------------------------------------------------------
   0.515E+02 -.585E+01 -.399E+01   -.575E+02 0.660E+01 0.455E+01   0.566E+01 -.602E+00 -.373E+00   0.122E-03 -.232E-05 0.323E-04
   -.246E+02 -.262E+02 -.359E+02   0.270E+02 0.287E+02 0.395E+02   -.259E+01 -.277E+01 -.379E+01   -.584E-04 -.729E-04 -.925E-04
   -.147E+02 -.160E+02 0.468E+02   0.164E+02 0.179E+02 -.522E+02   -.156E+01 -.166E+01 0.514E+01   -.112E-05 -.149E-04 0.134E-03
   -.103E+02 0.490E+02 -.221E+01   0.113E+02 -.531E+02 0.258E+01   -.102E+01 0.497E+01 -.141E+00   -.446E-05 0.121E-03 0.326E-04
   -.252E+01 -.166E+00 -.512E+01   0.290E+01 -.123E+00 0.558E+01   0.159E+00 -.674E+00 -.405E+00   0.143E-03 0.684E-04 0.259E-03
 -----------------------------------------------------------------------------------------------
   -.652E+00 0.736E+00 -.432E+00   0.178E-14 0.704E-14 0.355E-14   0.651E+00 -.736E+00 0.430E+00   0.201E-03 0.993E-04 0.365E-03


 POSITION                                       TOTAL-FORCE (eV/Angst)
 -----------------------------------------------------------------------------------
      2.07197      3.17857      2.91244        -0.392349      0.140038      0.192680
      3.68172      3.62868      3.61957        -0.221674     -0.305913     -0.274640
      3.45059      3.38988      1.84336         0.155228      0.261150     -0.199677
      3.37645      1.95745      2.87830        -0.078787      0.867813      0.225801
      3.14623      3.05917      2.83447         0.537581     -0.963088      0.055836
 -----------------------------------------------------------------------------------
    total drift:                               -0.000726     -0.000364     -0.000812


--------------------------------------------------------------------------------------------------------



  FREE ENERGIE OF THE ION-ELECTRON SYSTEM (eV)
  ---------------------------------------------------
  free  energy   TOTEN  =       -23.96278301 eV

  energy  without entropy=      -23.96278301  energy(sigma->0) =      -23.96278301



--------------------------------------------------------------------------------------------------------


    POTLOK:  cpu time    0.5770: real time    0.5784


--------------------------------------------------------------------------------------------------------


     LOOP+:  cpu time   12.0722: real time   12.1356
    4ORBIT:  cpu time    0.0000: real time    0.0000

 total amount of memory used by VASP MPI-rank0   107014. kBytes
=======================================================================

   base      :      30000. kBytes
   nonlr-proj:       1379. kBytes
   fftplans  :      26980. kBytes
   grid      :      47996. kBytes
   one-center:         15. kBytes
   wavefun   :        644. kBytes

  
  
 General timing and accounting informations for this job:
 ========================================================
  
                  Total CPU time used (sec):       12.853
                            User time (sec):       12.531
                          System time (sec):        0.322
                         Elapsed time (sec):       12.941
  
                   Maximum memory used (kb):      136320.
                   Average memory used (kb):           0.
  
                          Minor page faults:       116670
                          Major page faults:            0
                 Voluntary context switches:          134
