1.280120000000000005e+02 1.282680000000000007e+02 3.270669999999999789e+01 1.274006219999999985e+02 1.283306790000000035e+02 3.360691599999999823e+01 1.250390000000000015e+02 1.238539999999999992e+02 2.852479999999999905e+01 1.256889999999999930e+02 1.229719999999999942e+02 2.873280000000000101e+01 1.292800000000000011e+02 1.254989999999999952e+02 2.918059999999999832e+01 1.299749999999999943e+02 1.259399999999999977e+02 2.844739999999999824e+01
