-2.755089011565285517e+00 2.823761074375152891e-01 4.056711123001136343e+00 2.754739238662311518e+00 -2.820903550085492872e-01 -4.056013531233752190e+00 8.507377400728440842e-01 -1.152954486603357420e+00 2.727467596598309729e-01 -8.496768513987400517e-01 1.153260499326909105e+00 -2.721424989449166554e-01 -3.179957107797589666e-01 -2.004572058250721489e-01 3.308596094458390868e-01 3.172845435865613295e-01 1.998653892504871077e-01 -3.321614619281372249e-01
