-2.980303252165985668e+03
-2.980301659211434981e+03
-2.980298027144444404e+03
-2.980301049295423581e+03
-2.980302942309930586e+03
-2.980302791341159264e+03
-2.980302981494326559e+03
-2.980302534628941885e+03
-2.980292460347891392e+03
-2.980299634521029475e+03
-2.980290179897667258e+03
-2.980268327549039896e+03
-2.980213813128599213e+03
-2.980303355732521595e+03
-2.980298520160340104e+03
-2.980301450037508403e+03
-2.980300838624871176e+03
-2.980303015971152945e+03
-2.980303363514978173e+03
-2.980267005130091093e+03
-2.980301618884160234e+03
-2.980301719076484460e+03
-2.980302414300191685e+03
-2.980301633278983900e+03
-2.980285599405020548e+03
-2.980302565541076547e+03
-2.980303131728389872e+03
-2.980286808923927765e+03
-2.980302526465525716e+03
-2.980303222804899633e+03
-2.980297677532553735e+03
-2.980290792643662826e+03
-2.980234504585066134e+03
-2.980303356929822712e+03
-2.980303035209602967e+03
-2.980299782333279836e+03
-2.980289305786306613e+03
-2.980303345745942806e+03
-2.980282549117467624e+03
-2.980294764744136046e+03
-2.980303332902168677e+03
-2.980303359351635663e+03
-2.980233667535614131e+03
-2.980303346181325196e+03
-2.980230049264795980e+03
