9.994658490000000839e+00 0.000000000000000000e+00 0.000000000000000000e+00 2.143909400000000021e-01 9.854456700000000069e+00 0.000000000000000000e+00 2.315609499999999876e-01 2.839081299999999808e-01 9.935502850000000663e+00
9.828946509999999748e+00 0.000000000000000000e+00 0.000000000000000000e+00 -2.515553600000000056e-01 1.003429874999999960e+01 0.000000000000000000e+00 -1.998004999999999920e-02 2.398997400000000002e-01 9.958863729999999137e+00
1.022515222000000001e+01 0.000000000000000000e+00 0.000000000000000000e+00 -1.555363399999999952e-01 9.807997549999999620e+00 0.000000000000000000e+00 -9.056575000000000042e-02 -7.138010999999999662e-02 1.025597276000000058e+01
9.702972559999999191e+00 0.000000000000000000e+00 0.000000000000000000e+00 -2.784922899999999757e-01 1.002862177999999993e+01 0.000000000000000000e+00 1.119528199999999946e-01 9.755819999999999770e-02 1.013644288000000060e+01
9.994658490000000839e+00 0.000000000000000000e+00 0.000000000000000000e+00 2.143909400000000021e-01 9.854456700000000069e+00 0.000000000000000000e+00 2.315609499999999876e-01 2.839081299999999808e-01 9.935502850000000663e+00
1.021224121000000018e+01 0.000000000000000000e+00 0.000000000000000000e+00 1.601665100000000119e-01 9.950363089999999744e+00 0.000000000000000000e+00 -2.068206300000000053e-01 -2.826923299999999917e-01 9.903503020000000490e+00
1.018821920000000070e+01 0.000000000000000000e+00 0.000000000000000000e+00 -1.664631799999999884e-01 1.026823850999999976e+01 0.000000000000000000e+00 -2.490325100000000125e-01 -2.519680400000000042e-01 1.018734620000000035e+01
1.025428136000000023e+01 0.000000000000000000e+00 0.000000000000000000e+00 -1.943543699999999985e-01 9.898674460000000508e+00 0.000000000000000000e+00 -2.405521399999999976e-01 -2.923842199999999725e-01 9.800007940000000417e+00
9.755842169999999314e+00 0.000000000000000000e+00 0.000000000000000000e+00 7.539223000000000452e-02 9.701866459999999748e+00 0.000000000000000000e+00 9.376318000000000152e-02 9.735439999999999719e-03 1.027423485999999997e+01
9.771092230000000711e+00 0.000000000000000000e+00 0.000000000000000000e+00 -1.336940699999999982e-01 9.858562850000000211e+00 0.000000000000000000e+00 -5.766456999999999833e-02 5.529450999999999811e-02 9.929753260000000026e+00
1.008271842999999990e+01 0.000000000000000000e+00 0.000000000000000000e+00 -6.292221000000000619e-02 9.866296180000000859e+00 0.000000000000000000e+00 -2.926908100000000235e-01 -2.220087599999999994e-01 9.874126750000000285e+00
9.971928370000000541e+00 0.000000000000000000e+00 0.000000000000000000e+00 2.014671999999999991e-02 9.938780619999999288e+00 0.000000000000000000e+00 -1.610034599999999871e-01 1.173941399999999941e-01 9.806661919999999810e+00
1.022448091999999953e+01 0.000000000000000000e+00 0.000000000000000000e+00 8.959493000000000318e-02 9.814773020000000514e+00 0.000000000000000000e+00 2.873349999999999863e-02 -1.822806000000000079e-02 9.827392220000000123e+00
9.966942209999999136e+00 0.000000000000000000e+00 0.000000000000000000e+00 -6.859088000000000684e-02 9.919677650000000568e+00 0.000000000000000000e+00 1.039920000000000011e-01 6.734600999999999782e-02 1.001137514000000017e+01
1.018821920000000070e+01 0.000000000000000000e+00 0.000000000000000000e+00 -1.664631799999999884e-01 1.026823850999999976e+01 0.000000000000000000e+00 -2.490325100000000125e-01 -2.519680400000000042e-01 1.018734620000000035e+01
9.994658490000000839e+00 0.000000000000000000e+00 0.000000000000000000e+00 2.143909400000000021e-01 9.854456700000000069e+00 0.000000000000000000e+00 2.315609499999999876e-01 2.839081299999999808e-01 9.935502850000000663e+00
9.966942209999999136e+00 0.000000000000000000e+00 0.000000000000000000e+00 -6.859088000000000684e-02 9.919677650000000568e+00 0.000000000000000000e+00 1.039920000000000011e-01 6.734600999999999782e-02 1.001137514000000017e+01
1.007587410000000006e+01 0.000000000000000000e+00 0.000000000000000000e+00 -2.667444400000000271e-01 1.024023687000000038e+01 0.000000000000000000e+00 -1.077074699999999996e-01 -2.424863999999999839e-02 1.006708049999999943e+01
1.018821920000000070e+01 0.000000000000000000e+00 0.000000000000000000e+00 -1.664631799999999884e-01 1.026823850999999976e+01 0.000000000000000000e+00 -2.490325100000000125e-01 -2.519680400000000042e-01 1.018734620000000035e+01
1.025979478000000000e+01 0.000000000000000000e+00 0.000000000000000000e+00 2.988386699999999729e-01 1.023972009000000050e+01 0.000000000000000000e+00 -2.054415400000000058e-01 -1.638330799999999920e-01 1.012433575000000019e+01
1.008271842999999990e+01 0.000000000000000000e+00 0.000000000000000000e+00 -6.292221000000000619e-02 9.866296180000000859e+00 0.000000000000000000e+00 -2.926908100000000235e-01 -2.220087599999999994e-01 9.874126750000000285e+00
1.025428136000000023e+01 0.000000000000000000e+00 0.000000000000000000e+00 -1.943543699999999985e-01 9.898674460000000508e+00 0.000000000000000000e+00 -2.405521399999999976e-01 -2.923842199999999725e-01 9.800007940000000417e+00
1.021439076000000057e+01 0.000000000000000000e+00 0.000000000000000000e+00 -2.565058700000000247e-01 1.003475347000000006e+01 0.000000000000000000e+00 -2.179226300000000061e-01 -1.246231299999999986e-01 1.028581155000000003e+01
9.879875070000000647e+00 0.000000000000000000e+00 0.000000000000000000e+00 8.267351000000000560e-02 9.841482810000000470e+00 0.000000000000000000e+00 1.785444200000000092e-01 -2.445447000000000037e-01 1.025121451999999955e+01
1.027978343999999922e+01 0.000000000000000000e+00 0.000000000000000000e+00 3.821100000000000017e-03 1.029864300999999926e+01 0.000000000000000000e+00 -2.171439500000000022e-01 1.825335999999999903e-01 1.004507564999999936e+01
9.971928370000000541e+00 0.000000000000000000e+00 0.000000000000000000e+00 2.014671999999999991e-02 9.938780619999999288e+00 0.000000000000000000e+00 -1.610034599999999871e-01 1.173941399999999941e-01 9.806661919999999810e+00
1.027978343999999922e+01 0.000000000000000000e+00 0.000000000000000000e+00 3.821100000000000017e-03 1.029864300999999926e+01 0.000000000000000000e+00 -2.171439500000000022e-01 1.825335999999999903e-01 1.004507564999999936e+01
9.726551739999999668e+00 0.000000000000000000e+00 0.000000000000000000e+00 -3.039643699999999837e-01 1.016777832000000004e+01 0.000000000000000000e+00 -5.532480000000000210e-03 -2.774019200000000240e-01 9.943027799999999417e+00
1.021224121000000018e+01 0.000000000000000000e+00 0.000000000000000000e+00 1.601665100000000119e-01 9.950363089999999744e+00 0.000000000000000000e+00 -2.068206300000000053e-01 -2.826923299999999917e-01 9.903503020000000490e+00
1.025979478000000000e+01 0.000000000000000000e+00 0.000000000000000000e+00 2.988386699999999729e-01 1.023972009000000050e+01 0.000000000000000000e+00 -2.054415400000000058e-01 -1.638330799999999920e-01 1.012433575000000019e+01
9.919321390000000349e+00 0.000000000000000000e+00 0.000000000000000000e+00 -2.173653899999999917e-01 1.027553230999999911e+01 0.000000000000000000e+00 1.186150100000000068e-01 2.896202500000000235e-01 9.934497009999999406e+00
1.019931193000000036e+01 0.000000000000000000e+00 0.000000000000000000e+00 2.745053399999999866e-01 1.022441322999999969e+01 0.000000000000000000e+00 -1.228328000000000059e-02 -1.304093100000000005e-01 9.987492680000000789e+00
1.000000000000000000e+01 0.000000000000000000e+00 0.000000000000000000e+00 0.000000000000000000e+00 1.000000000000000000e+01 0.000000000000000000e+00 0.000000000000000000e+00 0.000000000000000000e+00 1.000000000000000000e+01
1.008271842999999990e+01 0.000000000000000000e+00 0.000000000000000000e+00 -6.292221000000000619e-02 9.866296180000000859e+00 0.000000000000000000e+00 -2.926908100000000235e-01 -2.220087599999999994e-01 9.874126750000000285e+00
1.000000000000000000e+01 0.000000000000000000e+00 0.000000000000000000e+00 0.000000000000000000e+00 1.000000000000000000e+01 0.000000000000000000e+00 0.000000000000000000e+00 0.000000000000000000e+00 1.000000000000000000e+01
9.702972559999999191e+00 0.000000000000000000e+00 0.000000000000000000e+00 -2.784922899999999757e-01 1.002862177999999993e+01 0.000000000000000000e+00 1.119528199999999946e-01 9.755819999999999770e-02 1.013644288000000060e+01
9.726551739999999668e+00 0.000000000000000000e+00 0.000000000000000000e+00 -3.039643699999999837e-01 1.016777832000000004e+01 0.000000000000000000e+00 -5.532480000000000210e-03 -2.774019200000000240e-01 9.943027799999999417e+00
9.771092230000000711e+00 0.000000000000000000e+00 0.000000000000000000e+00 -1.336940699999999982e-01 9.858562850000000211e+00 0.000000000000000000e+00 -5.766456999999999833e-02 5.529450999999999811e-02 9.929753260000000026e+00
9.879875070000000647e+00 0.000000000000000000e+00 0.000000000000000000e+00 8.267351000000000560e-02 9.841482810000000470e+00 0.000000000000000000e+00 1.785444200000000092e-01 -2.445447000000000037e-01 1.025121451999999955e+01
9.771092230000000711e+00 0.000000000000000000e+00 0.000000000000000000e+00 -1.336940699999999982e-01 9.858562850000000211e+00 0.000000000000000000e+00 -5.766456999999999833e-02 5.529450999999999811e-02 9.929753260000000026e+00
9.828946509999999748e+00 0.000000000000000000e+00 0.000000000000000000e+00 -2.515553600000000056e-01 1.003429874999999960e+01 0.000000000000000000e+00 -1.998004999999999920e-02 2.398997400000000002e-01 9.958863729999999137e+00
1.023672610999999932e+01 0.000000000000000000e+00 0.000000000000000000e+00 -3.462619000000000113e-02 1.020053112999999989e+01 0.000000000000000000e+00 1.871251999999999985e-02 -2.877036000000000038e-01 1.013872231999999940e+01
1.025979478000000000e+01 0.000000000000000000e+00 0.000000000000000000e+00 2.988386699999999729e-01 1.023972009000000050e+01 0.000000000000000000e+00 -2.054415400000000058e-01 -1.638330799999999920e-01 1.012433575000000019e+01
1.025979478000000000e+01 0.000000000000000000e+00 0.000000000000000000e+00 2.988386699999999729e-01 1.023972009000000050e+01 0.000000000000000000e+00 -2.054415400000000058e-01 -1.638330799999999920e-01 1.012433575000000019e+01
1.007587410000000006e+01 0.000000000000000000e+00 0.000000000000000000e+00 -2.667444400000000271e-01 1.024023687000000038e+01 0.000000000000000000e+00 -1.077074699999999996e-01 -2.424863999999999839e-02 1.006708049999999943e+01
1.008271842999999990e+01 0.000000000000000000e+00 0.000000000000000000e+00 -6.292221000000000619e-02 9.866296180000000859e+00 0.000000000000000000e+00 -2.926908100000000235e-01 -2.220087599999999994e-01 9.874126750000000285e+00
1.004712761000000043e+01 0.000000000000000000e+00 0.000000000000000000e+00 2.734142800000000095e-01 9.937014239999999887e+00 0.000000000000000000e+00 -2.467045300000000052e-01 -1.339887700000000070e-01 1.020744398000000075e+01
1.008271842999999990e+01 0.000000000000000000e+00 0.000000000000000000e+00 -6.292221000000000619e-02 9.866296180000000859e+00 0.000000000000000000e+00 -2.926908100000000235e-01 -2.220087599999999994e-01 9.874126750000000285e+00
9.943447400000000158e+00 0.000000000000000000e+00 0.000000000000000000e+00 2.928815000000000168e-01 9.738793480000000002e+00 0.000000000000000000e+00 -2.291510200000000108e-01 -1.110037999999999997e-01 9.914320289999999147e+00
1.023672610999999932e+01 0.000000000000000000e+00 0.000000000000000000e+00 -3.462619000000000113e-02 1.020053112999999989e+01 0.000000000000000000e+00 1.871251999999999985e-02 -2.877036000000000038e-01 1.013872231999999940e+01
1.022515222000000001e+01 0.000000000000000000e+00 0.000000000000000000e+00 -1.555363399999999952e-01 9.807997549999999620e+00 0.000000000000000000e+00 -9.056575000000000042e-02 -7.138010999999999662e-02 1.025597276000000058e+01
1.007587410000000006e+01 0.000000000000000000e+00 0.000000000000000000e+00 -2.667444400000000271e-01 1.024023687000000038e+01 0.000000000000000000e+00 -1.077074699999999996e-01 -2.424863999999999839e-02 1.006708049999999943e+01
9.726551739999999668e+00 0.000000000000000000e+00 0.000000000000000000e+00 -3.039643699999999837e-01 1.016777832000000004e+01 0.000000000000000000e+00 -5.532480000000000210e-03 -2.774019200000000240e-01 9.943027799999999417e+00
1.012861612999999927e+01 0.000000000000000000e+00 0.000000000000000000e+00 2.830513999999999947e-02 1.017915587999999971e+01 0.000000000000000000e+00 5.079107000000000066e-02 7.104000000000000288e-04 9.882071549999999149e+00
1.022448091999999953e+01 0.000000000000000000e+00 0.000000000000000000e+00 8.959493000000000318e-02 9.814773020000000514e+00 0.000000000000000000e+00 2.873349999999999863e-02 -1.822806000000000079e-02 9.827392220000000123e+00
9.966942209999999136e+00 0.000000000000000000e+00 0.000000000000000000e+00 -6.859088000000000684e-02 9.919677650000000568e+00 0.000000000000000000e+00 1.039920000000000011e-01 6.734600999999999782e-02 1.001137514000000017e+01
9.879875070000000647e+00 0.000000000000000000e+00 0.000000000000000000e+00 8.267351000000000560e-02 9.841482810000000470e+00 0.000000000000000000e+00 1.785444200000000092e-01 -2.445447000000000037e-01 1.025121451999999955e+01
1.022515222000000001e+01 0.000000000000000000e+00 0.000000000000000000e+00 -1.555363399999999952e-01 9.807997549999999620e+00 0.000000000000000000e+00 -9.056575000000000042e-02 -7.138010999999999662e-02 1.025597276000000058e+01
1.027978343999999922e+01 0.000000000000000000e+00 0.000000000000000000e+00 3.821100000000000017e-03 1.029864300999999926e+01 0.000000000000000000e+00 -2.171439500000000022e-01 1.825335999999999903e-01 1.004507564999999936e+01
9.702972559999999191e+00 0.000000000000000000e+00 0.000000000000000000e+00 -2.784922899999999757e-01 1.002862177999999993e+01 0.000000000000000000e+00 1.119528199999999946e-01 9.755819999999999770e-02 1.013644288000000060e+01
1.019931193000000036e+01 0.000000000000000000e+00 0.000000000000000000e+00 2.745053399999999866e-01 1.022441322999999969e+01 0.000000000000000000e+00 -1.228328000000000059e-02 -1.304093100000000005e-01 9.987492680000000789e+00
1.021439076000000057e+01 0.000000000000000000e+00 0.000000000000000000e+00 -2.565058700000000247e-01 1.003475347000000006e+01 0.000000000000000000e+00 -2.179226300000000061e-01 -1.246231299999999986e-01 1.028581155000000003e+01
1.021224121000000018e+01 0.000000000000000000e+00 0.000000000000000000e+00 1.601665100000000119e-01 9.950363089999999744e+00 0.000000000000000000e+00 -2.068206300000000053e-01 -2.826923299999999917e-01 9.903503020000000490e+00
1.025428136000000023e+01 0.000000000000000000e+00 0.000000000000000000e+00 -1.943543699999999985e-01 9.898674460000000508e+00 0.000000000000000000e+00 -2.405521399999999976e-01 -2.923842199999999725e-01 9.800007940000000417e+00
9.943447400000000158e+00 0.000000000000000000e+00 0.000000000000000000e+00 2.928815000000000168e-01 9.738793480000000002e+00 0.000000000000000000e+00 -2.291510200000000108e-01 -1.110037999999999997e-01 9.914320289999999147e+00
1.025452310999999916e+01 0.000000000000000000e+00 0.000000000000000000e+00 -3.962853000000000209e-02 9.728956639999999823e+00 0.000000000000000000e+00 -2.122991200000000078e-01 -2.857173599999999758e-01 9.986791339999999906e+00
1.023672610999999932e+01 0.000000000000000000e+00 0.000000000000000000e+00 -3.462619000000000113e-02 1.020053112999999989e+01 0.000000000000000000e+00 1.871251999999999985e-02 -2.877036000000000038e-01 1.013872231999999940e+01
1.022515222000000001e+01 0.000000000000000000e+00 0.000000000000000000e+00 -1.555363399999999952e-01 9.807997549999999620e+00 0.000000000000000000e+00 -9.056575000000000042e-02 -7.138010999999999662e-02 1.025597276000000058e+01
1.012861612999999927e+01 0.000000000000000000e+00 0.000000000000000000e+00 2.830513999999999947e-02 1.017915587999999971e+01 0.000000000000000000e+00 5.079107000000000066e-02 7.104000000000000288e-04 9.882071549999999149e+00
1.009969989000000012e+01 0.000000000000000000e+00 0.000000000000000000e+00 2.049415800000000121e-01 9.738238530000000281e+00 0.000000000000000000e+00 1.133902400000000033e-01 1.649790200000000040e-01 1.029805501000000056e+01
9.828946509999999748e+00 0.000000000000000000e+00 0.000000000000000000e+00 -2.515553600000000056e-01 1.003429874999999960e+01 0.000000000000000000e+00 -1.998004999999999920e-02 2.398997400000000002e-01 9.958863729999999137e+00
1.004712761000000043e+01 0.000000000000000000e+00 0.000000000000000000e+00 2.734142800000000095e-01 9.937014239999999887e+00 0.000000000000000000e+00 -2.467045300000000052e-01 -1.339887700000000070e-01 1.020744398000000075e+01
9.755842169999999314e+00 0.000000000000000000e+00 0.000000000000000000e+00 7.539223000000000452e-02 9.701866459999999748e+00 0.000000000000000000e+00 9.376318000000000152e-02 9.735439999999999719e-03 1.027423485999999997e+01
1.022515222000000001e+01 0.000000000000000000e+00 0.000000000000000000e+00 -1.555363399999999952e-01 9.807997549999999620e+00 0.000000000000000000e+00 -9.056575000000000042e-02 -7.138010999999999662e-02 1.025597276000000058e+01
9.755842169999999314e+00 0.000000000000000000e+00 0.000000000000000000e+00 7.539223000000000452e-02 9.701866459999999748e+00 0.000000000000000000e+00 9.376318000000000152e-02 9.735439999999999719e-03 1.027423485999999997e+01
1.022515222000000001e+01 0.000000000000000000e+00 0.000000000000000000e+00 -1.555363399999999952e-01 9.807997549999999620e+00 0.000000000000000000e+00 -9.056575000000000042e-02 -7.138010999999999662e-02 1.025597276000000058e+01
1.023672610999999932e+01 0.000000000000000000e+00 0.000000000000000000e+00 -3.462619000000000113e-02 1.020053112999999989e+01 0.000000000000000000e+00 1.871251999999999985e-02 -2.877036000000000038e-01 1.013872231999999940e+01
9.702972559999999191e+00 0.000000000000000000e+00 0.000000000000000000e+00 -2.784922899999999757e-01 1.002862177999999993e+01 0.000000000000000000e+00 1.119528199999999946e-01 9.755819999999999770e-02 1.013644288000000060e+01
9.971928370000000541e+00 0.000000000000000000e+00 0.000000000000000000e+00 2.014671999999999991e-02 9.938780619999999288e+00 0.000000000000000000e+00 -1.610034599999999871e-01 1.173941399999999941e-01 9.806661919999999810e+00
1.015804203000000072e+01 0.000000000000000000e+00 0.000000000000000000e+00 -2.947794300000000089e-01 9.847083100000000755e+00 0.000000000000000000e+00 -2.509004999999999916e-02 2.762656199999999895e-01 1.016949443999999936e+01
1.009969989000000012e+01 0.000000000000000000e+00 0.000000000000000000e+00 2.049415800000000121e-01 9.738238530000000281e+00 0.000000000000000000e+00 1.133902400000000033e-01 1.649790200000000040e-01 1.029805501000000056e+01
9.971928370000000541e+00 0.000000000000000000e+00 0.000000000000000000e+00 2.014671999999999991e-02 9.938780619999999288e+00 0.000000000000000000e+00 -1.610034599999999871e-01 1.173941399999999941e-01 9.806661919999999810e+00
1.025979478000000000e+01 0.000000000000000000e+00 0.000000000000000000e+00 2.988386699999999729e-01 1.023972009000000050e+01 0.000000000000000000e+00 -2.054415400000000058e-01 -1.638330799999999920e-01 1.012433575000000019e+01
9.919321390000000349e+00 0.000000000000000000e+00 0.000000000000000000e+00 -2.173653899999999917e-01 1.027553230999999911e+01 0.000000000000000000e+00 1.186150100000000068e-01 2.896202500000000235e-01 9.934497009999999406e+00
1.000000000000000000e+01 0.000000000000000000e+00 0.000000000000000000e+00 0.000000000000000000e+00 1.000000000000000000e+01 0.000000000000000000e+00 0.000000000000000000e+00 0.000000000000000000e+00 1.000000000000000000e+01
1.021439076000000057e+01 0.000000000000000000e+00 0.000000000000000000e+00 -2.565058700000000247e-01 1.003475347000000006e+01 0.000000000000000000e+00 -2.179226300000000061e-01 -1.246231299999999986e-01 1.028581155000000003e+01
9.971928370000000541e+00 0.000000000000000000e+00 0.000000000000000000e+00 2.014671999999999991e-02 9.938780619999999288e+00 0.000000000000000000e+00 -1.610034599999999871e-01 1.173941399999999941e-01 9.806661919999999810e+00
1.009969989000000012e+01 0.000000000000000000e+00 0.000000000000000000e+00 2.049415800000000121e-01 9.738238530000000281e+00 0.000000000000000000e+00 1.133902400000000033e-01 1.649790200000000040e-01 1.029805501000000056e+01
1.025452310999999916e+01 0.000000000000000000e+00 0.000000000000000000e+00 -3.962853000000000209e-02 9.728956639999999823e+00 0.000000000000000000e+00 -2.122991200000000078e-01 -2.857173599999999758e-01 9.986791339999999906e+00
1.018821920000000070e+01 0.000000000000000000e+00 0.000000000000000000e+00 -1.664631799999999884e-01 1.026823850999999976e+01 0.000000000000000000e+00 -2.490325100000000125e-01 -2.519680400000000042e-01 1.018734620000000035e+01
9.943447400000000158e+00 0.000000000000000000e+00 0.000000000000000000e+00 2.928815000000000168e-01 9.738793480000000002e+00 0.000000000000000000e+00 -2.291510200000000108e-01 -1.110037999999999997e-01 9.914320289999999147e+00
9.943447400000000158e+00 0.000000000000000000e+00 0.000000000000000000e+00 2.928815000000000168e-01 9.738793480000000002e+00 0.000000000000000000e+00 -2.291510200000000108e-01 -1.110037999999999997e-01 9.914320289999999147e+00
9.943447400000000158e+00 0.000000000000000000e+00 0.000000000000000000e+00 2.928815000000000168e-01 9.738793480000000002e+00 0.000000000000000000e+00 -2.291510200000000108e-01 -1.110037999999999997e-01 9.914320289999999147e+00
1.023672610999999932e+01 0.000000000000000000e+00 0.000000000000000000e+00 -3.462619000000000113e-02 1.020053112999999989e+01 0.000000000000000000e+00 1.871251999999999985e-02 -2.877036000000000038e-01 1.013872231999999940e+01
9.919321390000000349e+00 0.000000000000000000e+00 0.000000000000000000e+00 -2.173653899999999917e-01 1.027553230999999911e+01 0.000000000000000000e+00 1.186150100000000068e-01 2.896202500000000235e-01 9.934497009999999406e+00
9.966942209999999136e+00 0.000000000000000000e+00 0.000000000000000000e+00 -6.859088000000000684e-02 9.919677650000000568e+00 0.000000000000000000e+00 1.039920000000000011e-01 6.734600999999999782e-02 1.001137514000000017e+01
1.025452310999999916e+01 0.000000000000000000e+00 0.000000000000000000e+00 -3.962853000000000209e-02 9.728956639999999823e+00 0.000000000000000000e+00 -2.122991200000000078e-01 -2.857173599999999758e-01 9.986791339999999906e+00
1.009969989000000012e+01 0.000000000000000000e+00 0.000000000000000000e+00 2.049415800000000121e-01 9.738238530000000281e+00 0.000000000000000000e+00 1.133902400000000033e-01 1.649790200000000040e-01 1.029805501000000056e+01
9.994658490000000839e+00 0.000000000000000000e+00 0.000000000000000000e+00 2.143909400000000021e-01 9.854456700000000069e+00 0.000000000000000000e+00 2.315609499999999876e-01 2.839081299999999808e-01 9.935502850000000663e+00
9.702972559999999191e+00 0.000000000000000000e+00 0.000000000000000000e+00 -2.784922899999999757e-01 1.002862177999999993e+01 0.000000000000000000e+00 1.119528199999999946e-01 9.755819999999999770e-02 1.013644288000000060e+01
9.943447400000000158e+00 0.000000000000000000e+00 0.000000000000000000e+00 2.928815000000000168e-01 9.738793480000000002e+00 0.000000000000000000e+00 -2.291510200000000108e-01 -1.110037999999999997e-01 9.914320289999999147e+00
1.000000000000000000e+01 0.000000000000000000e+00 0.000000000000000000e+00 0.000000000000000000e+00 1.000000000000000000e+01 0.000000000000000000e+00 0.000000000000000000e+00 0.000000000000000000e+00 1.000000000000000000e+01
1.012861612999999927e+01 0.000000000000000000e+00 0.000000000000000000e+00 2.830513999999999947e-02 1.017915587999999971e+01 0.000000000000000000e+00 5.079107000000000066e-02 7.104000000000000288e-04 9.882071549999999149e+00
9.765491680000000230e+00 0.000000000000000000e+00 0.000000000000000000e+00 -5.138258999999999882e-02 9.977989779999999698e+00 0.000000000000000000e+00 -2.372378300000000106e-01 1.098929099999999964e-01 9.746578660000000838e+00
9.726551739999999668e+00 0.000000000000000000e+00 0.000000000000000000e+00 -3.039643699999999837e-01 1.016777832000000004e+01 0.000000000000000000e+00 -5.532480000000000210e-03 -2.774019200000000240e-01 9.943027799999999417e+00
9.919321390000000349e+00 0.000000000000000000e+00 0.000000000000000000e+00 -2.173653899999999917e-01 1.027553230999999911e+01 0.000000000000000000e+00 1.186150100000000068e-01 2.896202500000000235e-01 9.934497009999999406e+00
9.943447400000000158e+00 0.000000000000000000e+00 0.000000000000000000e+00 2.928815000000000168e-01 9.738793480000000002e+00 0.000000000000000000e+00 -2.291510200000000108e-01 -1.110037999999999997e-01 9.914320289999999147e+00
1.025452310999999916e+01 0.000000000000000000e+00 0.000000000000000000e+00 -3.962853000000000209e-02 9.728956639999999823e+00 0.000000000000000000e+00 -2.122991200000000078e-01 -2.857173599999999758e-01 9.986791339999999906e+00
1.004712761000000043e+01 0.000000000000000000e+00 0.000000000000000000e+00 2.734142800000000095e-01 9.937014239999999887e+00 0.000000000000000000e+00 -2.467045300000000052e-01 -1.339887700000000070e-01 1.020744398000000075e+01
1.000000000000000000e+01 0.000000000000000000e+00 0.000000000000000000e+00 0.000000000000000000e+00 1.000000000000000000e+01 0.000000000000000000e+00 0.000000000000000000e+00 0.000000000000000000e+00 1.000000000000000000e+01
9.919321390000000349e+00 0.000000000000000000e+00 0.000000000000000000e+00 -2.173653899999999917e-01 1.027553230999999911e+01 0.000000000000000000e+00 1.186150100000000068e-01 2.896202500000000235e-01 9.934497009999999406e+00
9.971928370000000541e+00 0.000000000000000000e+00 0.000000000000000000e+00 2.014671999999999991e-02 9.938780619999999288e+00 0.000000000000000000e+00 -1.610034599999999871e-01 1.173941399999999941e-01 9.806661919999999810e+00
1.012861612999999927e+01 0.000000000000000000e+00 0.000000000000000000e+00 2.830513999999999947e-02 1.017915587999999971e+01 0.000000000000000000e+00 5.079107000000000066e-02 7.104000000000000288e-04 9.882071549999999149e+00
1.019931193000000036e+01 0.000000000000000000e+00 0.000000000000000000e+00 2.745053399999999866e-01 1.022441322999999969e+01 0.000000000000000000e+00 -1.228328000000000059e-02 -1.304093100000000005e-01 9.987492680000000789e+00
1.012861612999999927e+01 0.000000000000000000e+00 0.000000000000000000e+00 2.830513999999999947e-02 1.017915587999999971e+01 0.000000000000000000e+00 5.079107000000000066e-02 7.104000000000000288e-04 9.882071549999999149e+00
9.966942209999999136e+00 0.000000000000000000e+00 0.000000000000000000e+00 -6.859088000000000684e-02 9.919677650000000568e+00 0.000000000000000000e+00 1.039920000000000011e-01 6.734600999999999782e-02 1.001137514000000017e+01
1.007587410000000006e+01 0.000000000000000000e+00 0.000000000000000000e+00 -2.667444400000000271e-01 1.024023687000000038e+01 0.000000000000000000e+00 -1.077074699999999996e-01 -2.424863999999999839e-02 1.006708049999999943e+01
1.021224121000000018e+01 0.000000000000000000e+00 0.000000000000000000e+00 1.601665100000000119e-01 9.950363089999999744e+00 0.000000000000000000e+00 -2.068206300000000053e-01 -2.826923299999999917e-01 9.903503020000000490e+00
9.771092230000000711e+00 0.000000000000000000e+00 0.000000000000000000e+00 -1.336940699999999982e-01 9.858562850000000211e+00 0.000000000000000000e+00 -5.766456999999999833e-02 5.529450999999999811e-02 9.929753260000000026e+00
1.019931193000000036e+01 0.000000000000000000e+00 0.000000000000000000e+00 2.745053399999999866e-01 1.022441322999999969e+01 0.000000000000000000e+00 -1.228328000000000059e-02 -1.304093100000000005e-01 9.987492680000000789e+00
1.007587410000000006e+01 0.000000000000000000e+00 0.000000000000000000e+00 -2.667444400000000271e-01 1.024023687000000038e+01 0.000000000000000000e+00 -1.077074699999999996e-01 -2.424863999999999839e-02 1.006708049999999943e+01
9.919321390000000349e+00 0.000000000000000000e+00 0.000000000000000000e+00 -2.173653899999999917e-01 1.027553230999999911e+01 0.000000000000000000e+00 1.186150100000000068e-01 2.896202500000000235e-01 9.934497009999999406e+00
9.919321390000000349e+00 0.000000000000000000e+00 0.000000000000000000e+00 -2.173653899999999917e-01 1.027553230999999911e+01 0.000000000000000000e+00 1.186150100000000068e-01 2.896202500000000235e-01 9.934497009999999406e+00
9.943447400000000158e+00 0.000000000000000000e+00 0.000000000000000000e+00 2.928815000000000168e-01 9.738793480000000002e+00 0.000000000000000000e+00 -2.291510200000000108e-01 -1.110037999999999997e-01 9.914320289999999147e+00
1.008271842999999990e+01 0.000000000000000000e+00 0.000000000000000000e+00 -6.292221000000000619e-02 9.866296180000000859e+00 0.000000000000000000e+00 -2.926908100000000235e-01 -2.220087599999999994e-01 9.874126750000000285e+00
9.879875070000000647e+00 0.000000000000000000e+00 0.000000000000000000e+00 8.267351000000000560e-02 9.841482810000000470e+00 0.000000000000000000e+00 1.785444200000000092e-01 -2.445447000000000037e-01 1.025121451999999955e+01
9.755842169999999314e+00 0.000000000000000000e+00 0.000000000000000000e+00 7.539223000000000452e-02 9.701866459999999748e+00 0.000000000000000000e+00 9.376318000000000152e-02 9.735439999999999719e-03 1.027423485999999997e+01
1.023672610999999932e+01 0.000000000000000000e+00 0.000000000000000000e+00 -3.462619000000000113e-02 1.020053112999999989e+01 0.000000000000000000e+00 1.871251999999999985e-02 -2.877036000000000038e-01 1.013872231999999940e+01
9.966942209999999136e+00 0.000000000000000000e+00 0.000000000000000000e+00 -6.859088000000000684e-02 9.919677650000000568e+00 0.000000000000000000e+00 1.039920000000000011e-01 6.734600999999999782e-02 1.001137514000000017e+01
1.025452310999999916e+01 0.000000000000000000e+00 0.000000000000000000e+00 -3.962853000000000209e-02 9.728956639999999823e+00 0.000000000000000000e+00 -2.122991200000000078e-01 -2.857173599999999758e-01 9.986791339999999906e+00
9.771092230000000711e+00 0.000000000000000000e+00 0.000000000000000000e+00 -1.336940699999999982e-01 9.858562850000000211e+00 0.000000000000000000e+00 -5.766456999999999833e-02 5.529450999999999811e-02 9.929753260000000026e+00
9.771092230000000711e+00 0.000000000000000000e+00 0.000000000000000000e+00 -1.336940699999999982e-01 9.858562850000000211e+00 0.000000000000000000e+00 -5.766456999999999833e-02 5.529450999999999811e-02 9.929753260000000026e+00