5.528940000000000410e+00 4.139059999999999739e+00 3.569700000000000095e+00 4.142649999999999721e+00 4.924009999999999998e+00 4.376680000000000348e+00 5.718420000000000059e+00 5.703030000000000044e+00 4.388930000000000220e+00 5.510650000000000048e+00 4.250580000000000247e+00 5.390060000000000073e+00 5.220909999999999940e+00 4.733570000000000277e+00 4.413499999999999979e+00
5.165899999999999714e+00 4.153529999999999944e+00 3.582819999999999894e+00 3.725989999999999913e+00 4.953359999999999985e+00 4.403240000000000265e+00 5.321670000000000122e+00 5.774960000000000093e+00 4.413450000000000095e+00 5.081089999999999662e+00 4.288359999999999950e+00 5.348910000000000053e+00 4.806729999999999947e+00 4.809730000000000061e+00 4.421479999999999855e+00
5.368280000000000385e+00 3.951620000000000132e+00 3.698290000000000077e+00 3.924580000000000179e+00 4.690409999999999968e+00 4.528739999999999988e+00 5.527610000000000134e+00 5.510089999999999932e+00 4.550889999999999880e+00 5.297220000000000262e+00 4.046400000000000219e+00 5.497630000000000017e+00 5.025039999999999729e+00 4.557760000000000034e+00 4.556919999999999860e+00
5.069510000000000183e+00 4.185369999999999813e+00 3.589589999999999836e+00 3.740130000000000177e+00 4.886800000000000033e+00 4.509879999999999889e+00 5.290390000000000370e+00 5.700260000000000105e+00 4.501470000000000304e+00 5.003260000000000041e+00 4.193430000000000213e+00 5.431099999999999817e+00 4.800019999999999953e+00 4.742210000000000036e+00 4.504129999999999967e+00
5.552669999999999995e+00 4.134280000000000399e+00 3.532469999999999999e+00 4.147249999999999659e+00 4.946769999999999889e+00 4.353539999999999743e+00 5.677319999999999922e+00 5.740929999999999644e+00 4.368949999999999889e+00 5.504319999999999879e+00 4.282989999999999853e+00 5.357520000000000060e+00 5.222500000000000142e+00 4.726219999999999644e+00 4.422900000000000276e+00
5.394730000000000025e+00 3.962979999999999947e+00 3.481770000000000032e+00 4.036760000000000126e+00 4.729709999999999859e+00 4.275489999999999569e+00 5.581100000000000172e+00 5.514739999999999753e+00 4.429199999999999804e+00 5.328210000000000335e+00 4.028660000000000352e+00 5.350319999999999965e+00 5.116839999999999833e+00 4.531990000000000407e+00 4.401559999999999917e+00
5.267599999999999838e+00 4.095150000000000290e+00 3.665770000000000195e+00 3.821540000000000159e+00 4.808530000000000193e+00 4.406089999999999840e+00 5.420130000000000337e+00 5.707779999999999632e+00 4.549599999999999866e+00 5.115680000000000227e+00 4.173390000000000377e+00 5.476280000000000037e+00 4.931409999999999627e+00 4.703920000000000101e+00 4.534690000000000332e+00
5.335790000000000255e+00 3.912059999999999871e+00 3.526330000000000187e+00 3.827890000000000015e+00 4.641370000000000218e+00 4.335700000000000109e+00 5.489010000000000389e+00 5.470500000000000362e+00 4.341999999999999638e+00 5.214610000000000412e+00 3.946470000000000145e+00 5.258770000000000167e+00 4.951050000000000395e+00 4.515450000000000408e+00 4.347800000000000331e+00
5.313990000000000435e+00 3.958410000000000206e+00 3.699110000000000120e+00 3.914540000000000131e+00 4.826959999999999695e+00 4.455969999999999764e+00 5.503840000000000288e+00 5.485310000000000130e+00 4.599459999999999660e+00 5.129900000000000126e+00 3.955169999999999852e+00 5.476499999999999702e+00 4.978449999999999598e+00 4.549809999999999910e+00 4.563469999999999693e+00
5.147719999999999629e+00 3.997269999999999879e+00 3.597379999999999800e+00 3.691809999999999814e+00 4.781060000000000088e+00 4.419459999999999944e+00 5.355999999999999872e+00 5.598160000000000025e+00 4.404959999999999987e+00 5.103950000000000209e+00 4.106160000000000032e+00 5.323500000000000121e+00 4.812850000000000072e+00 4.648520000000000429e+00 4.396499999999999631e+00
5.199220000000000397e+00 3.862589999999999968e+00 3.558510000000000062e+00 3.825289999999999857e+00 4.644910000000000316e+00 4.324600000000000222e+00 5.332010000000000360e+00 5.509430000000000049e+00 4.260390000000000121e+00 5.216969999999999885e+00 4.128930000000000433e+00 5.384409999999999918e+00 4.910800000000000054e+00 4.519230000000000302e+00 4.393200000000000216e+00
5.274919999999999831e+00 4.074860000000000149e+00 3.544589999999999907e+00 3.849460000000000104e+00 4.861519999999999619e+00 4.308530000000000193e+00 5.470449999999999591e+00 5.672659999999999592e+00 4.344000000000000306e+00 5.183440000000000047e+00 4.150450000000000195e+00 5.271429999999999616e+00 4.945759999999999934e+00 4.713659999999999961e+00 4.356969999999999565e+00
5.477680000000000327e+00 3.977510000000000101e+00 3.505180000000000184e+00 4.142509999999999692e+00 4.724920000000000009e+00 4.347570000000000157e+00 5.731830000000000425e+00 5.552929999999999922e+00 4.350590000000000401e+00 5.477369999999999628e+00 4.080149999999999721e+00 5.319359999999999644e+00 5.188819999999999766e+00 4.589620000000000033e+00 4.360999999999999766e+00
5.362110000000000376e+00 4.046960000000000335e+00 3.647069999999999812e+00 3.929739999999999789e+00 4.850389999999999979e+00 4.332889999999999908e+00 5.545410000000000394e+00 5.652449999999999974e+00 4.439779999999999838e+00 5.243750000000000355e+00 4.143690000000000317e+00 5.395999999999999908e+00 5.022649999999999615e+00 4.675849999999999618e+00 4.449519999999999698e+00
5.356139999999999901e+00 4.124119999999999564e+00 3.696759999999999824e+00 3.829730000000000079e+00 4.816609999999999836e+00 4.370940000000000047e+00 5.395710000000000228e+00 5.691849999999999632e+00 4.544889999999999652e+00 5.069740000000000357e+00 4.191399999999999793e+00 5.485610000000000319e+00 4.929210000000000313e+00 4.700660000000000061e+00 4.534650000000000070e+00
5.584909999999999819e+00 4.124380000000000379e+00 3.584589999999999943e+00 4.124819999999999709e+00 4.830739999999999590e+00 4.376490000000000435e+00 5.689540000000000042e+00 5.732219999999999871e+00 4.329640000000000377e+00 5.470869999999999678e+00 4.231989999999999696e+00 5.368560000000000443e+00 5.223449999999999704e+00 4.741670000000000051e+00 4.418999999999999595e+00
5.370899999999999785e+00 4.037749999999999950e+00 3.614689999999999959e+00 3.968989999999999796e+00 4.866349999999999731e+00 4.261879999999999669e+00 5.529620000000000424e+00 5.634170000000000122e+00 4.457799999999999763e+00 5.190610000000000390e+00 4.190330000000000332e+00 5.413490000000000357e+00 5.024390000000000356e+00 4.672930000000000028e+00 4.455169999999999852e+00
5.211359999999999992e+00 4.202919999999999767e+00 3.584400000000000031e+00 3.809989999999999988e+00 4.887439999999999785e+00 4.439070000000000071e+00 5.318959999999999688e+00 5.796680000000000277e+00 4.470309999999999562e+00 5.208919999999999995e+00 4.278209999999999624e+00 5.388340000000000352e+00 4.889529999999999710e+00 4.778719999999999857e+00 4.478180000000000049e+00
5.289069999999999716e+00 4.097409999999999997e+00 3.681540000000000035e+00 3.838229999999999809e+00 4.823140000000000427e+00 4.484589999999999854e+00 5.444460000000000299e+00 5.653959999999999653e+00 4.524189999999999934e+00 5.165009999999999657e+00 4.142570000000000086e+00 5.460930000000000284e+00 4.922100000000000364e+00 4.709559999999999746e+00 4.530230000000000423e+00
5.524759999999999671e+00 4.097920000000000229e+00 3.656730000000000036e+00 4.167740000000000222e+00 4.896480000000000388e+00 4.351379999999999804e+00 5.724059999999999704e+00 5.659290000000000376e+00 4.499030000000000307e+00 5.423930000000000362e+00 4.242519999999999847e+00 5.441779999999999617e+00 5.205189999999999984e+00 4.719500000000000028e+00 4.502580000000000027e+00
5.207220000000000404e+00 3.869839999999999947e+00 3.562759999999999927e+00 3.811710000000000154e+00 4.671359999999999957e+00 4.321930000000000049e+00 5.346180000000000376e+00 5.528389999999999915e+00 4.303799999999999848e+00 5.202689999999999593e+00 4.089339999999999975e+00 5.354199999999999626e+00 4.911270000000000024e+00 4.518150000000000333e+00 4.391969999999999708e+00
5.321930000000000049e+00 3.910280000000000200e+00 3.546349999999999891e+00 3.855960000000000054e+00 4.650739999999999874e+00 4.318190000000000417e+00 5.473410000000000331e+00 5.479400000000000048e+00 4.349779999999999980e+00 5.210829999999999629e+00 3.958009999999999806e+00 5.252110000000000056e+00 4.951489999999999725e+00 4.513119999999999798e+00 4.347489999999999633e+00
5.154790000000000205e+00 4.047460000000000058e+00 3.706550000000000011e+00 3.850470000000000059e+00 4.811090000000000089e+00 4.641969999999999708e+00 5.364320000000000199e+00 5.616249999999999964e+00 4.458610000000000184e+00 5.201179999999999914e+00 4.199069999999999858e+00 5.495309999999999917e+00 4.915160000000000196e+00 4.643749999999999822e+00 4.567269999999999719e+00
5.330669999999999575e+00 3.979929999999999968e+00 3.606590000000000185e+00 4.004749999999999588e+00 4.710720000000000240e+00 4.623770000000000380e+00 5.551459999999999617e+00 5.477619999999999933e+00 4.512150000000000105e+00 5.442280000000000229e+00 3.961199999999999832e+00 5.477909999999999613e+00 5.080530000000000435e+00 4.489160000000000039e+00 4.553600000000000314e+00
5.362800000000000011e+00 4.242600000000000371e+00 3.635299999999999976e+00 4.004920000000000258e+00 5.189639999999999809e+00 4.358699999999999797e+00 5.696279999999999788e+00 5.836299999999999599e+00 4.467279999999999696e+00 5.224129999999999718e+00 4.435599999999999987e+00 5.425010000000000332e+00 5.070750000000000313e+00 4.900859999999999772e+00 4.462760000000000282e+00
5.260679999999999801e+00 4.065559999999999619e+00 3.521529999999999827e+00 3.886179999999999968e+00 4.884839999999999627e+00 4.278909999999999769e+00 5.453109999999999680e+00 5.677539999999999587e+00 4.326870000000000438e+00 5.153620000000000090e+00 4.118409999999999904e+00 5.281489999999999796e+00 4.947820000000000107e+00 4.714750000000000441e+00 4.361939999999999706e+00
5.351460000000000328e+00 4.281699999999999839e+00 3.629599999999999937e+00 4.045770000000000088e+00 5.178860000000000241e+00 4.362250000000000405e+00 5.620800000000000018e+00 5.808060000000000223e+00 4.435190000000000410e+00 5.219909999999999606e+00 4.420460000000000278e+00 5.440349999999999575e+00 5.074919999999999654e+00 4.902120000000000033e+00 4.464330000000000354e+00
5.109680000000000000e+00 4.072650000000000325e+00 3.582619999999999916e+00 3.651909999999999989e+00 4.775229999999999642e+00 4.388449999999999740e+00 5.255829999999999558e+00 5.619710000000000427e+00 4.389529999999999710e+00 5.007509999999999906e+00 4.085060000000000358e+00 5.302249999999999908e+00 4.742370000000000196e+00 4.639429999999999943e+00 4.426249999999999574e+00
5.414939999999999642e+00 3.957320000000000171e+00 3.526829999999999909e+00 4.024580000000000268e+00 4.734160000000000146e+00 4.287560000000000038e+00 5.604720000000000368e+00 5.533310000000000173e+00 4.410180000000000433e+00 5.349669999999999703e+00 3.997189999999999799e+00 5.332589999999999719e+00 5.112420000000000186e+00 4.533170000000000144e+00 4.399860000000000326e+00
5.550589999999999691e+00 4.093169999999999753e+00 3.643580000000000041e+00 4.080589999999999939e+00 4.872419999999999973e+00 4.474050000000000082e+00 5.784150000000000347e+00 5.711789999999999701e+00 4.489399999999999835e+00 5.435089999999999755e+00 4.151379999999999626e+00 5.432870000000000310e+00 5.204360000000000319e+00 4.725109999999999921e+00 4.495000000000000107e+00
5.244139999999999802e+00 4.339019999999999655e+00 3.538879999999999804e+00 3.833439999999999959e+00 5.035400000000000098e+00 4.489709999999999646e+00 5.360730000000000217e+00 5.940269999999999939e+00 4.315269999999999939e+00 5.266589999999999883e+00 4.447560000000000180e+00 5.342439999999999856e+00 4.943760000000000154e+00 4.943179999999999907e+00 4.418999999999999595e+00
5.598559999999999981e+00 4.095650000000000013e+00 3.584309999999999885e+00 4.166199999999999903e+00 4.878490000000000215e+00 4.435710000000000264e+00 5.780859999999999665e+00 5.656760000000000232e+00 4.426999999999999602e+00 5.482579999999999565e+00 4.182839999999999669e+00 5.338479999999999670e+00 5.246050000000000324e+00 4.740240000000000009e+00 4.435559999999999725e+00
5.330479999999999663e+00 4.096720000000000361e+00 3.573890000000000011e+00 3.929739999999999789e+00 4.876990000000000158e+00 4.397129999999999761e+00 5.512500000000000178e+00 5.677900000000000169e+00 4.421109999999999651e+00 5.271930000000000227e+00 4.178340000000000387e+00 5.380060000000000286e+00 5.027540000000000120e+00 4.675830000000000375e+00 4.445059999999999789e+00
5.214959999999999596e+00 3.840190000000000214e+00 3.599829999999999863e+00 3.814449999999999896e+00 4.619690000000000296e+00 4.351250000000000284e+00 5.339109999999999800e+00 5.532569999999999766e+00 4.213779999999999859e+00 5.219159999999999577e+00 4.150640000000000107e+00 5.357660000000000089e+00 4.909609999999999808e+00 4.519470000000000098e+00 4.393650000000000055e+00
5.366080000000000183e+00 4.060559999999999725e+00 3.611159999999999926e+00 3.942349999999999799e+00 4.827910000000000146e+00 4.428040000000000198e+00 5.551490000000000258e+00 5.637679999999999580e+00 4.425709999999999589e+00 5.284600000000000186e+00 4.137310000000000265e+00 5.364630000000000010e+00 5.019230000000000302e+00 4.689689999999999692e+00 4.440290000000000070e+00
5.091730000000000089e+00 4.162630000000000052e+00 3.641779999999999795e+00 3.668429999999999858e+00 4.893709999999999560e+00 4.506730000000000125e+00 5.310590000000000366e+00 5.727710000000000079e+00 4.501909999999999634e+00 5.032309999999999839e+00 4.218560000000000088e+00 5.429249999999999687e+00 4.800040000000000084e+00 4.739150000000000418e+00 4.500160000000000160e+00
5.088849999999999874e+00 4.124929999999999986e+00 3.555680000000000174e+00 3.652600000000000069e+00 4.780890000000000306e+00 4.345530000000000115e+00 5.217699999999999783e+00 5.637279999999999625e+00 4.430509999999999948e+00 5.018709999999999560e+00 4.111449999999999605e+00 5.326069999999999638e+00 4.746290000000000120e+00 4.630950000000000344e+00 4.426669999999999661e+00
5.064110000000000333e+00 4.029279999999999973e+00 3.541519999999999779e+00 3.711580000000000101e+00 4.795550000000000423e+00 4.405949999999999811e+00 5.330219999999999736e+00 5.601630000000000109e+00 4.350109999999999921e+00 5.113260000000000360e+00 4.124030000000000307e+00 5.333719999999999573e+00 4.819530000000000314e+00 4.642870000000000275e+00 4.405990000000000073e+00
5.328870000000000218e+00 3.871300000000000185e+00 3.669729999999999936e+00 3.998909999999999965e+00 4.648360000000000269e+00 4.559169999999999945e+00 5.579760000000000275e+00 5.491609999999999658e+00 4.551389999999999603e+00 5.418989999999999974e+00 3.900700000000000056e+00 5.454760000000000275e+00 5.080750000000000099e+00 4.507270000000000110e+00 4.552380000000000315e+00
5.011779999999999902e+00 4.058410000000000295e+00 3.492849999999999788e+00 3.783560000000000034e+00 4.807439999999999714e+00 4.403990000000000293e+00 5.329799999999999649e+00 5.638690000000000424e+00 4.304820000000000313e+00 5.123599999999999710e+00 4.145439999999999792e+00 5.338530000000000442e+00 4.817070000000000185e+00 4.634590000000000209e+00 4.413579999999999615e+00
5.092360000000000220e+00 4.297990000000000421e+00 3.495460000000000012e+00 3.713470000000000049e+00 4.981150000000000411e+00 4.478189999999999671e+00 5.290779999999999816e+00 5.780310000000000059e+00 4.485350000000000392e+00 5.124699999999999811e+00 4.189939999999999998e+00 5.262900000000000134e+00 4.812829999999999941e+00 4.803139999999999965e+00 4.423680000000000057e+00
5.463160000000000238e+00 4.104899999999999771e+00 3.592140000000000111e+00 4.053829999999999600e+00 4.796909999999999563e+00 4.444119999999999848e+00 5.598130000000000273e+00 5.662530000000000285e+00 4.555159999999999876e+00 5.409399999999999764e+00 4.101350000000000051e+00 5.416509999999999714e+00 5.137150000000000105e+00 4.645220000000000127e+00 4.510239999999999583e+00
5.536080000000000112e+00 4.097949999999999982e+00 3.705039999999999889e+00 4.154889999999999972e+00 4.899119999999999919e+00 4.449959999999999916e+00 5.698559999999999626e+00 5.643329999999999735e+00 4.496410000000000018e+00 5.424990000000000201e+00 4.177699999999999747e+00 5.390579999999999927e+00 5.207349999999999923e+00 4.725999999999999979e+00 4.494830000000000325e+00
5.544559999999999711e+00 4.070490000000000386e+00 3.641300000000000203e+00 4.139059999999999739e+00 4.906719999999999970e+00 4.350710000000000299e+00 5.735899999999999999e+00 5.695870000000000211e+00 4.490109999999999602e+00 5.420790000000000219e+00 4.217600000000000016e+00 5.467489999999999739e+00 5.205210000000000115e+00 4.719949999999999868e+00 4.502519999999999634e+00
5.205580000000000318e+00 4.186420000000000030e+00 3.598450000000000149e+00 3.771809999999999885e+00 4.883090000000000153e+00 4.425980000000000025e+00 5.372860000000000191e+00 5.795410000000000394e+00 4.490370000000000417e+00 5.217920000000000336e+00 4.269660000000000011e+00 5.422259999999999636e+00 4.887950000000000017e+00 4.781279999999999752e+00 4.473609999999999864e+00
5.204959999999999809e+00 3.854119999999999990e+00 3.573819999999999997e+00 3.828170000000000073e+00 4.629730000000000345e+00 4.336269999999999847e+00 5.338090000000000224e+00 5.523170000000000357e+00 4.234580000000000233e+00 5.215749999999999886e+00 4.144250000000000433e+00 5.368999999999999773e+00 4.909670000000000201e+00 4.518779999999999575e+00 4.394379999999999953e+00
5.374769999999999825e+00 3.920059999999999878e+00 3.715790000000000148e+00 4.008210000000000051e+00 4.800060000000000215e+00 4.436819999999999986e+00 5.552039999999999864e+00 5.599409999999999776e+00 4.552959999999999674e+00 5.289930000000000021e+00 4.083020000000000316e+00 5.480269999999999975e+00 5.069779999999999731e+00 4.591800000000000104e+00 4.533019999999999605e+00
5.264420000000000321e+00 3.891729999999999912e+00 3.567019999999999857e+00 3.823739999999999917e+00 4.664159999999999862e+00 4.367040000000000255e+00 5.403459999999999930e+00 5.491329999999999600e+00 4.346510000000000318e+00 5.164419999999999789e+00 4.000020000000000131e+00 5.329240000000000421e+00 4.903920000000000279e+00 4.527449999999999974e+00 4.386379999999999946e+00
5.369100000000000428e+00 3.882140000000000146e+00 3.579229999999999912e+00 3.948819999999999997e+00 4.687990000000000101e+00 4.314700000000000202e+00 5.547419999999999796e+00 5.479280000000000150e+00 4.489519999999999733e+00 5.262129999999999974e+00 3.934190000000000076e+00 5.312070000000000292e+00 5.028999999999999915e+00 4.516849999999999810e+00 4.402529999999999610e+00
5.473119999999999763e+00 4.027820000000000178e+00 3.666700000000000070e+00 4.051059999999999661e+00 4.788590000000000124e+00 4.475570000000000270e+00 5.665440000000000254e+00 5.620350000000000179e+00 4.520570000000000199e+00 5.412079999999999558e+00 4.094610000000000305e+00 5.391449999999999854e+00 5.130720000000000169e+00 4.656399999999999650e+00 4.506380000000000052e+00
5.317149999999999821e+00 3.959600000000000009e+00 3.713649999999999896e+00 3.972399999999999931e+00 4.664019999999999833e+00 4.517990000000000173e+00 5.499570000000000292e+00 5.554470000000000240e+00 4.562800000000000189e+00 5.296599999999999753e+00 4.084920000000000329e+00 5.502860000000000085e+00 5.027700000000000280e+00 4.552389999999999937e+00 4.555109999999999992e+00
5.244500000000000384e+00 4.157720000000000304e+00 3.635400000000000187e+00 3.814890000000000114e+00 4.915790000000000326e+00 4.446270000000000167e+00 5.388090000000000046e+00 5.750099999999999767e+00 4.473559999999999981e+00 5.173670000000000435e+00 4.260729999999999684e+00 5.368129999999999846e+00 4.883539999999999992e+00 4.785459999999999603e+00 4.474750000000000227e+00
5.100710000000000299e+00 4.116310000000000358e+00 3.539369999999999905e+00 3.666469999999999896e+00 4.780079999999999885e+00 4.348550000000000360e+00 5.233259999999999579e+00 5.637730000000000352e+00 4.415309999999999846e+00 5.023450000000000415e+00 4.104860000000000397e+00 5.334240000000000315e+00 4.742460000000000342e+00 4.632249999999999979e+00 4.428359999999999630e+00
5.464050000000000296e+00 4.119650000000000034e+00 3.561650000000000205e+00 4.008079999999999643e+00 4.909570000000000434e+00 4.368100000000000094e+00 5.678840000000000110e+00 5.746389999999999887e+00 4.374649999999999928e+00 5.393570000000000420e+00 4.217410000000000103e+00 5.303860000000000241e+00 5.119220000000000326e+00 4.773220000000000240e+00 4.383560000000000123e+00
5.440030000000000143e+00 3.990089999999999915e+00 3.481430000000000025e+00 4.140469999999999651e+00 4.735570000000000057e+00 4.392669999999999852e+00 5.690769999999999662e+00 5.565949999999999953e+00 4.265100000000000335e+00 5.467830000000000190e+00 4.082819999999999894e+00 5.329539999999999722e+00 5.196329999999999671e+00 4.586380000000000123e+00 4.365490000000000315e+00
5.372630000000000017e+00 4.032420000000000115e+00 3.626009999999999955e+00 3.946790000000000020e+00 4.831710000000000171e+00 4.388609999999999900e+00 5.545410000000000394e+00 5.626949999999999896e+00 4.438089999999999868e+00 5.272499999999999964e+00 4.145629999999999704e+00 5.365980000000000416e+00 5.017960000000000420e+00 4.680579999999999963e+00 4.449270000000000280e+00
5.337119999999999642e+00 3.851710000000000189e+00 3.673420000000000130e+00 3.990899999999999892e+00 4.629620000000000068e+00 4.556009999999999671e+00 5.584730000000000416e+00 5.472240000000000215e+00 4.560609999999999609e+00 5.402079999999999771e+00 3.900929999999999787e+00 5.453509999999999636e+00 5.081719999999999793e+00 4.512059999999999960e+00 4.551669999999999661e+00
5.341190000000000104e+00 3.927299999999999791e+00 3.677820000000000089e+00 3.901819999999999844e+00 4.671299999999999564e+00 4.517070000000000363e+00 5.474669999999999703e+00 5.574620000000000353e+00 4.546240000000000059e+00 5.320299999999999585e+00 4.084570000000000256e+00 5.520649999999999835e+00 5.031679999999999708e+00 4.552819999999999645e+00 4.558069999999999844e+00
5.360479999999999912e+00 4.266840000000000188e+00 3.587559999999999860e+00 3.975280000000000147e+00 5.178180000000000227e+00 4.359259999999999913e+00 5.624719999999999942e+00 5.901629999999999932e+00 4.400509999999999700e+00 5.223480000000000345e+00 4.385220000000000340e+00 5.443880000000000052e+00 5.079419999999999824e+00 4.898559999999999803e+00 4.470670000000000144e+00
5.127229999999999954e+00 4.096210000000000129e+00 3.649719999999999853e+00 3.724089999999999900e+00 4.887719999999999843e+00 4.489370000000000083e+00 5.294069999999999609e+00 5.704530000000000101e+00 4.493079999999999963e+00 5.075820000000000221e+00 4.209319999999999951e+00 5.444410000000000416e+00 4.790199999999999569e+00 4.747880000000000322e+00 4.500420000000000087e+00
5.554899999999999949e+00 4.166159999999999641e+00 3.546730000000000160e+00 4.201109999999999900e+00 4.920720000000000205e+00 4.372899999999999565e+00 5.696920000000000428e+00 5.677340000000000053e+00 4.410280000000000200e+00 5.491109999999999935e+00 4.196979999999999933e+00 5.352680000000000327e+00 5.253059999999999619e+00 4.727960000000000385e+00 4.444130000000000358e+00
5.195190000000000197e+00 4.026699999999999946e+00 3.745319999999999983e+00 3.842929999999999957e+00 4.811119999999999841e+00 4.560290000000000177e+00 5.365649999999999586e+00 5.638609999999999900e+00 4.508160000000000167e+00 5.181479999999999642e+00 4.119010000000000282e+00 5.459800000000000431e+00 4.913949999999999818e+00 4.650280000000000413e+00 4.569670000000000343e+00
5.497810000000000308e+00 3.919459999999999944e+00 3.561990000000000212e+00 3.995299999999999851e+00 4.689180000000000348e+00 4.373630000000000351e+00 5.670840000000000103e+00 5.486869999999999692e+00 4.382030000000000314e+00 5.351689999999999614e+00 3.962410000000000210e+00 5.297959999999999781e+00 5.102280000000000371e+00 4.546829999999999927e+00 4.394999999999999574e+00
5.316629999999999967e+00 3.888259999999999827e+00 3.529650000000000176e+00 3.894989999999999952e+00 4.655840000000000423e+00 4.300539999999999807e+00 5.448690000000000033e+00 5.480279999999999596e+00 4.352079999999999949e+00 5.200750000000000206e+00 3.961910000000000043e+00 5.258840000000000181e+00 4.951570000000000249e+00 4.514129999999999754e+00 4.349599999999999689e+00
5.377469999999999750e+00 3.873400000000000176e+00 3.565529999999999866e+00 3.941860000000000142e+00 4.668809999999999683e+00 4.340589999999999726e+00 5.568850000000000300e+00 5.466560000000000308e+00 4.462310000000000443e+00 5.265109999999999957e+00 3.938400000000000123e+00 5.324600000000000222e+00 5.026860000000000106e+00 4.519890000000000185e+00 4.402739999999999654e+00
5.249869999999999592e+00 3.791090000000000071e+00 3.572610000000000063e+00 3.943179999999999907e+00 4.659989999999999633e+00 4.381540000000000212e+00 5.575610000000000177e+00 5.375189999999999912e+00 4.428090000000000082e+00 5.295359999999999623e+00 3.863999999999999879e+00 5.358979999999999855e+00 5.045930000000000248e+00 4.431890000000000107e+00 4.439770000000000216e+00
5.456459999999999866e+00 4.040219999999999700e+00 3.679609999999999825e+00 4.084740000000000038e+00 4.783380000000000187e+00 4.464669999999999916e+00 5.637950000000000017e+00 5.605360000000000120e+00 4.546700000000000408e+00 5.413960000000000328e+00 4.114630000000000010e+00 5.361589999999999634e+00 5.131439999999999557e+00 4.655380000000000074e+00 4.506520000000000081e+00
5.368170000000000108e+00 3.961739999999999817e+00 3.745540000000000092e+00 3.969230000000000036e+00 4.666310000000000180e+00 4.515270000000000117e+00 5.434090000000000309e+00 5.569189999999999863e+00 4.474339999999999762e+00 5.353309999999999569e+00 4.063480000000000203e+00 5.476890000000000036e+00 5.024449999999999861e+00 4.552579999999999849e+00 4.562210000000000321e+00
5.455940000000000012e+00 4.160000000000000142e+00 3.563200000000000145e+00 4.057210000000000427e+00 4.911529999999999951e+00 4.357009999999999827e+00 5.649280000000000079e+00 5.734680000000000000e+00 4.380729999999999791e+00 5.391619999999999635e+00 4.209100000000000286e+00 5.299820000000000420e+00 5.118420000000000414e+00 4.771359999999999602e+00 4.384179999999999744e+00
5.543459999999999610e+00 4.022649999999999615e+00 3.720070000000000210e+00 4.132640000000000313e+00 4.787119999999999820e+00 4.549739999999999895e+00 5.809859999999999580e+00 5.569740000000000357e+00 4.569810000000000372e+00 5.464229999999999698e+00 4.123780000000000001e+00 5.503569999999999851e+00 5.217909999999999826e+00 4.634619999999999962e+00 4.571970000000000312e+00
5.122720000000000162e+00 4.262940000000000396e+00 3.517160000000000064e+00 3.720849999999999991e+00 4.972419999999999618e+00 4.417169999999999597e+00 5.289469999999999672e+00 5.779569999999999652e+00 4.385659999999999670e+00 5.073929999999999829e+00 4.229070000000000107e+00 5.320079999999999920e+00 4.814029999999999809e+00 4.803589999999999804e+00 4.430500000000000327e+00
5.418459999999999610e+00 4.001780000000000115e+00 3.702700000000000102e+00 4.000750000000000028e+00 4.744329999999999714e+00 4.409779999999999589e+00 5.618400000000000283e+00 5.516799999999999926e+00 4.462810000000000166e+00 5.233590000000000408e+00 4.136429999999999829e+00 5.508300000000000196e+00 5.065929999999999822e+00 4.592060000000000031e+00 4.541529999999999845e+00
5.290000000000000036e+00 3.970310000000000006e+00 3.669579999999999842e+00 3.901710000000000012e+00 4.721560000000000201e+00 4.488310000000000244e+00 5.526290000000000369e+00 5.459550000000000125e+00 4.569919999999999760e+00 5.185970000000000191e+00 4.017039999999999722e+00 5.515579999999999927e+00 4.974980000000000402e+00 4.554590000000000138e+00 4.562439999999999607e+00
5.354849999999999888e+00 3.928360000000000074e+00 3.691850000000000076e+00 3.911399999999999988e+00 4.679660000000000153e+00 4.514389999999999681e+00 5.444270000000000387e+00 5.555410000000000181e+00 4.523950000000000138e+00 5.332119999999999749e+00 4.079010000000000247e+00 5.498350000000000293e+00 5.031290000000000262e+00 4.554100000000000037e+00 4.560839999999999783e+00
5.289460000000000051e+00 3.974079999999999835e+00 3.652359999999999829e+00 3.924749999999999961e+00 4.729390000000000427e+00 4.476869999999999905e+00 5.532610000000000028e+00 5.465510000000000090e+00 4.575230000000000352e+00 5.171890000000000320e+00 4.010189999999999699e+00 5.526390000000000136e+00 4.973749999999999893e+00 4.553689999999999571e+00 4.563480000000000203e+00
5.323520000000000252e+00 3.942349999999999799e+00 3.691710000000000047e+00 3.932069999999999954e+00 4.664349999999999774e+00 4.516949999999999577e+00 5.493800000000000239e+00 5.578520000000000145e+00 4.559239999999999959e+00 5.306930000000000369e+00 4.087889999999999802e+00 5.518690000000000317e+00 5.030149999999999899e+00 4.551549999999999763e+00 4.556009999999999671e+00
5.484189999999999898e+00 4.027099999999999902e+00 3.649709999999999788e+00 4.008759999999999657e+00 4.797380000000000422e+00 4.484670000000000378e+00 5.685620000000000118e+00 5.629139999999999588e+00 4.489329999999999821e+00 5.409309999999999619e+00 4.069770000000000110e+00 5.442960000000000242e+00 5.131870000000000154e+00 4.657060000000000421e+00 4.505349999999999966e+00
5.057400000000000340e+00 4.190120000000000289e+00 3.588589999999999947e+00 3.731840000000000046e+00 4.932050000000000267e+00 4.460749999999999993e+00 5.314770000000000216e+00 5.682380000000000209e+00 4.559230000000000338e+00 5.090760000000000396e+00 4.122410000000000352e+00 5.353970000000000340e+00 4.792399999999999771e+00 4.745449999999999946e+00 4.509909999999999641e+00
5.336759999999999948e+00 4.130320000000000213e+00 3.509469999999999867e+00 3.885460000000000136e+00 4.956290000000000084e+00 4.281329999999999636e+00 5.534810000000000230e+00 5.623509999999999565e+00 4.341400000000000148e+00 5.132799999999999585e+00 4.164710000000000356e+00 5.300449999999999662e+00 4.936480000000000423e+00 4.704049999999999621e+00 4.359950000000000436e+00
5.320949999999999847e+00 4.091980000000000395e+00 3.660579999999999945e+00 3.839039999999999786e+00 4.873840000000000394e+00 4.494670000000000165e+00 5.476040000000000241e+00 5.684140000000000192e+00 4.509710000000000107e+00 5.235949999999999882e+00 4.224700000000000344e+00 5.462200000000000166e+00 4.949620000000000353e+00 4.740319999999999645e+00 4.516230000000000189e+00