1.080399990081787109e+01 0.000000000000000000e+00 0.000000000000000000e+00 0.000000000000000000e+00 1.049800014495849609e+01 0.000000000000000000e+00 0.000000000000000000e+00 0.000000000000000000e+00 1.095600032806396484e+01
