1.027354955673217773e+00 1.706662058830261230e+00 1.602476000785827637e+00 3.963681936264038086e+00 3.976695060729980469e+00 3.215037107467651367e+00 4.365913867950439453e+00 5.882829189300537109e+00 5.464285850524902344e+00 1.528406023979187012e+00 2.262054920196533203e+00 3.791754961013793945e+00 6.766289234161376953e+00 7.323278903961181641e+00 7.395022869110107422e+00 8.059174537658691406e+00 9.176419258117675781e+00 5.758306026458740234e+00
