1.027355000000000018e+00 1.706661999999999901e+00 1.602476000000000012e+00 3.963681999999999928e+00 3.976694999999999869e+00 3.215037000000000145e+00 4.365914000000000073e+00 5.882829000000000086e+00 5.464286000000000421e+00 1.528405999999999931e+00 2.262055000000000149e+00 3.791755000000000209e+00 6.766289000000000442e+00 7.323279000000000316e+00 7.395023000000000124e+00 8.059174999999999756e+00 9.176418999999999215e+00 5.758306000000000147e+00
