6.917656660079956055e-01 7.553510665893554688e-01 2.274964809417724609e+00 -3.209683299064636230e-01 2.775192558765411377e-01 9.094060063362121582e-01 -6.332576274871826172e-02 -6.449618339538574219e-01 -8.145296573638916016e-01 -1.756150871515274048e-01 -3.121818304061889648e-01 -2.260577917098999023e+00 1.112470626831054688e+00 1.688659071922302246e+00 -1.721519827842712402e+00 -1.208800196647644043e+00 -1.778025507926940918e+00 1.601097583770751953e+00
