6.917656471387700901e-01 7.553510904559461725e-01 2.274964715661485837e+00 -3.209683176564304130e-01 2.775192417423087421e-01 9.094059481875964579e-01 -6.332576187642065257e-02 -6.449617955424929994e-01 -8.145296625904011600e-01 -1.756151021831240944e-01 -3.121818289867506202e-01 -2.260577849622959601e+00 1.112470664210258198e+00 1.688659044047888358e+00 -1.721519802047959624e+00 -1.208800137434334454e+00 -1.778025455114995435e+00 1.601097547549200639e+00
