6.917655894184945309e-01 7.553510274301609151e-01 2.274964525840567742e+00 -3.209682908751355646e-01 2.775192185863639693e-01 9.094058723076186013e-01 -6.332575659257858036e-02 -6.449617417274867703e-01 -8.145295946268114040e-01 -1.756150875299649639e-01 -3.121818029385921012e-01 -2.260577661002467487e+00 1.112470571386751095e+00 1.688658903147764123e+00 -1.721519658405964881e+00 -1.208800036573186576e+00 -1.778025306758221902e+00 1.601097413955125504e+00
