3.634190000000000254e+01 1.131089999999999947e+02 8.911270000000000380e+01 3.640709999999999980e+01 1.142710000000000008e+02 8.757139999999999702e+01 3.553009999999999735e+01 1.147570000000000050e+02 8.942610000000000525e+01 3.507569999999999766e+01 1.134759999999999991e+02 8.814039999999999964e+01 3.599649999999999750e+01 1.139759999999999991e+02 8.856140000000000612e+01 3.706479999999999819e+01 1.127570000000000050e+02 8.521909999999999741e+01 3.791290000000000049e+01 1.131219999999999999e+02 8.469060000000000343e+01
1.042590000000000003e+02 4.334349999999999881e+01 2.234759999999999991e+01 1.038430000000000035e+02 4.443489999999999895e+01 2.135300000000000153e+01 1.040390000000000015e+02 4.254160000000000252e+01 2.081330000000000169e+01 1.054230000000000018e+02 4.374819999999999709e+01 2.086840000000000117e+01 1.044129999999999967e+02 4.356260000000000332e+01 2.135069999999999979e+01 1.011239999999999952e+02 4.242999999999999972e+01 2.326180000000000092e+01 1.012780000000000058e+02 4.247879999999999967e+01 2.217579999999999885e+01
1.060409999999999968e+02 1.182759999999999962e+02 7.759650000000000603e+01 1.049950000000000045e+02 1.199140000000000015e+02 7.763909999999999911e+01 1.044699999999999989e+02 1.186440000000000055e+02 7.857819999999999538e+01 1.042930000000000064e+02 1.184710000000000036e+02 7.673520000000000607e+01 1.049369999999999976e+02 1.187000000000000028e+02 7.763320000000000221e+01 1.015699999999999932e+02 1.172650000000000006e+02 7.984929999999999950e+01 1.017210000000000036e+02 1.168679999999999950e+02 7.883870000000000289e+01
5.542399999999999949e+01 5.278869999999999862e+01 2.008070000000000022e+01 5.400739999999999696e+01 5.178719999999999857e+01 1.988569999999999993e+01 5.380830000000000268e+01 5.346840000000000259e+01 2.016989999999999839e+01 5.434989999999999810e+01 5.221050000000000324e+01 2.134019999999999939e+01 5.440879999999999939e+01 5.265100000000000335e+01 2.040769999999999840e+01 5.209740000000000038e+01 5.014039999999999964e+01 1.943110000000000070e+01 5.177579999999999671e+01 4.925959999999999894e+01 1.881749999999999901e+01
8.577779999999999916e+01 9.982160000000000366e+01 1.280860000000000127e+02 8.652009999999999934e+01 1.010499999999999972e+02 1.268269999999999982e+02 8.707309999999999661e+01 1.008269999999999982e+02 1.286279999999999859e+02 8.560240000000000293e+01 1.015379999999999967e+02 1.284050000000000011e+02 8.629640000000000555e+01 1.007920000000000016e+02 1.279779999999999944e+02 8.416360000000000241e+01 9.812309999999999377e+01 1.279050000000000011e+02 8.345069999999999766e+01 9.775719999999999743e+01 1.270900000000000034e+02
5.938750000000000284e+01 1.140330000000000013e+02 8.591169999999999618e+01 6.033400000000000318e+01 1.132159999999999940e+02 8.486069999999999425e+01 6.025600000000000023e+01 1.125250000000000057e+02 8.647499999999999432e+01 6.106790000000000163e+01 1.140409999999999968e+02 8.630480000000000018e+01 6.022379999999999711e+01 1.134449999999999932e+02 8.592740000000000578e+01 6.145349999999999824e+01 1.154509999999999934e+02 8.226049999999999329e+01 6.206640000000000157e+01 1.148469999999999942e+02 8.160720000000000596e+01
1.183960000000000008e+02 7.127280000000000371e+01 6.807059999999999889e+01 1.191329999999999956e+02 7.256069999999999709e+01 6.706310000000000571e+01 1.191539999999999964e+02 7.064530000000000598e+01 6.660819999999999652e+01 1.200060000000000002e+02 7.145539999999999736e+01 6.790300000000000580e+01 1.191370000000000005e+02 7.147690000000000055e+01 6.734260000000000446e+01 1.146110000000000042e+02 6.822499999999999432e+01 6.750879999999999370e+01 1.155150000000000006e+02 6.877410000000000423e+01 6.770569999999999311e+01
5.829999999999999716e+01 1.065709999999999980e+02 1.112000000000000028e+02 5.714970000000000283e+01 1.064789999999999992e+02 1.099740000000000038e+02 5.672939999999999827e+01 1.064050000000000011e+02 1.118080000000000069e+02 5.774719999999999942e+01 1.051140000000000043e+02 1.108139999999999930e+02 5.740780000000000172e+01 1.061219999999999999e+02 1.109890000000000043e+02 5.485549999999999926e+01 1.106460000000000008e+02 1.110789999999999935e+02 5.378479999999999706e+01 1.109759999999999991e+02 1.111189999999999998e+02
