-4.081993783530961537e+03
-4.082242745456198918e+03
-4.082443462165060737e+03
-4.082663474631177905e+03
-4.082510749691839465e+03
-4.082734232235564832e+03
-4.082628072508826335e+03
-4.082649783902472791e+03
