9.676390000000000668e+01 5.791720000000000113e+01 8.095969999999999800e+01 9.539239999999999498e+01 5.838889999999999958e+01 7.947220000000000084e+01 9.666790000000000305e+01 5.881080000000000041e+01 7.988920000000000243e+01 9.620820000000000505e+01 5.651400000000000290e+01 8.026269999999999527e+01 9.545569999999999311e+01 5.530190000000000339e+01 7.762510000000000332e+01 9.500029999999999575e+01 5.698049999999999926e+01 7.705280000000000484e+01 9.434059999999999491e+01 5.617229999999999990e+01 7.851990000000000691e+01 9.625260000000000105e+01 5.709029999999999916e+01 7.855689999999999884e+01 9.627410000000000423e+01 5.767810000000000059e+01 7.976800000000000068e+01 9.519320000000000448e+01 5.622420000000000329e+01 7.789199999999999591e+01
9.201930000000000121e+01 1.155709999999999980e+02 7.139979999999999905e+01 9.034529999999999461e+01 1.146940000000000026e+02 7.203810000000000002e+01 9.204940000000000566e+01 1.154099999999999966e+02 7.283859999999999957e+01 9.074410000000000309e+01 1.163769999999999953e+02 7.255740000000000123e+01 8.676999999999999602e+01 1.159669999999999987e+02 7.078459999999999752e+01 8.760339999999999350e+01 1.151099999999999994e+02 7.218909999999999627e+01 8.844540000000000646e+01 1.158119999999999976e+02 7.112659999999999627e+01 8.711560000000000059e+01 1.166590000000000060e+02 7.255450000000000443e+01 9.108459999999999468e+01 1.156089999999999947e+02 7.220180000000000575e+01 8.761020000000000607e+01 1.159479999999999933e+02 7.151640000000000441e+01
4.903540000000000276e+01 1.163220000000000027e+02 2.983099999999999952e+01 4.823819999999999908e+01 1.174590000000000032e+02 3.102830000000000155e+01 4.766219999999999857e+01 1.157920000000000016e+02 3.138609999999999900e+01 4.719890000000000185e+01 1.164909999999999997e+02 3.009380000000000166e+01 5.017710000000000292e+01 1.162570000000000050e+02 2.972749999999999915e+01 4.988689999999999714e+01 1.143070000000000022e+02 2.988129999999999953e+01 5.160969999999999658e+01 1.146560000000000059e+02 2.998209999999999908e+01 5.106569999999999965e+01 1.147409999999999997e+02 2.815210000000000079e+01 4.813320000000000221e+01 1.164929999999999950e+02 3.062290000000000134e+01 5.062189999999999657e+01 1.148979999999999961e+02 2.936830000000000140e+01
5.911180000000000234e+01 6.542520000000000380e+01 1.082510000000000083e+01 5.725130000000000052e+01 6.510649999999999693e+01 1.055180000000000007e+01 5.829829999999999757e+01 6.667400000000000659e+01 1.001110000000000078e+01 5.753009999999999735e+01 6.635930000000000462e+01 1.174319999999999986e+01 5.585560000000000258e+01 6.850660000000000593e+01 1.254829999999999934e+01 5.515229999999999677e+01 6.968619999999999948e+01 1.101970000000000027e+01 5.577369999999999806e+01 6.832680000000000575e+01 1.068319999999999936e+01 5.689690000000000225e+01 6.961220000000000141e+01 1.151709999999999923e+01 5.806119999999999948e+01 6.590640000000000498e+01 1.097620000000000040e+01 5.598100000000000165e+01 6.908339999999999748e+01 1.160280000000000022e+01
9.476309999999999434e+01 9.818649999999999878e+00 1.105870000000000033e+02 9.609759999999999991e+01 9.829399999999999693e+00 1.101749999999999972e+02 9.600730000000000075e+01 1.117190000000000083e+01 1.106460000000000008e+02 9.625900000000000034e+01 1.033029999999999937e+01 1.118179999999999978e+02 9.852460000000000662e+01 1.293960000000000043e+01 1.109189999999999969e+02 9.889400000000000546e+01 1.331780000000000008e+01 1.091509999999999962e+02 9.720629999999999882e+01 1.295570000000000022e+01 1.096080000000000041e+02 9.818259999999999366e+01 1.122630000000000017e+01 1.097270000000000039e+02 9.554680000000000462e+01 1.038310000000000066e+01 1.109399999999999977e+02 9.822729999999999961e+01 1.269689999999999941e+01 1.099470000000000027e+02
3.356519999999999726e+01 9.539730000000000132e+01 4.956869999999999976e+01 3.395519999999999783e+01 9.362290000000000134e+01 5.011719999999999686e+01 3.360779999999999745e+01 9.397150000000000603e+01 4.819910000000000139e+01 3.233160000000000167e+01 9.414719999999999800e+01 4.918180000000000263e+01 3.415420000000000300e+01 9.379890000000000327e+01 5.310229999999999961e+01 3.478439999999999799e+01 9.332840000000000202e+01 5.128249999999999886e+01 3.304569999999999652e+01 9.460779999999999745e+01 5.181589999999999918e+01 3.278439999999999799e+01 9.296150000000000091e+01 5.147789999999999822e+01 3.334559999999999746e+01 9.428650000000000375e+01 4.922010000000000218e+01 3.379749999999999943e+01 9.346569999999999823e+01 5.181099999999999994e+01
4.813199999999999790e+01 1.160430000000000064e+02 3.006030000000000157e+01 4.926270000000000238e+01 1.170520000000000067e+02 3.096399999999999864e+01 4.821730000000000160e+01 1.159440000000000026e+02 3.166610000000000014e+01 4.746249999999999858e+01 1.176800000000000068e+02 3.068830000000000169e+01 5.107450000000000045e+01 1.153319999999999936e+02 2.880549999999999855e+01 4.941779999999999973e+01 1.151380000000000052e+02 2.971130000000000138e+01 5.077360000000000184e+01 1.144579999999999984e+02 3.071490000000000009e+01 5.044129999999999825e+01 1.136979999999999933e+02 2.898689999999999856e+01 4.820049999999999812e+01 1.167710000000000008e+02 3.079040000000000177e+01 5.043119999999999692e+01 1.147069999999999936e+02 2.954220000000000113e+01
