-2.197398875019136995e+03
-2.201110828204231893e+03
-2.201654044718663954e+03
-2.203226197587874594e+03
-2.201390017462498236e+03
-2.200941426717852210e+03
-2.203710395019189036e+03
