-1.707057037037838176e+00 5.762089486646210235e-01 -4.495546995422034509e-01 -5.482896970828221583e-01 -2.515560393274486550e+00 1.726847539615047333e+00 2.056456821490199260e+00 -2.836903989179359264e+00 -1.306693664262770449e+00 4.549560735099166808e-01 3.666270152366299939e+00 -1.588503409049101478e+00 1.660561872112621851e+00 -3.742564868192654437e+00 -1.522586077816008965e+00 -1.366880314608031333e-01 -1.617019156613625608e+00 6.070305645789185744e-01 -8.331618316756382869e-01 2.737525752996678996e-01 9.533000306736583163e-01 -1.738124964655347826e+00 -2.649579516589133377e+00 -1.937927670405581004e+00 3.398900958256940996e-02 1.938911271712268292e+00 4.092115010770316808e+00 7.573577337950749833e-01 6.906484924384335145e+00 -5.740275731402076920e-01
-3.468700604162428203e+00 1.125295842059528706e+00 2.419836106362539263e-01 1.952333151232533925e+00 1.993955612465761584e+00 6.447482911183313181e-01 -2.428386413476300465e+00 -7.360463721501864232e-01 7.432939011844347243e-01 -4.064543680897062750e+00 9.126698456499010348e+00 2.958671753495703882e+00 6.286047958327460883e-01 -4.239195133535680893e-01 5.866640834239076341e-01 -8.864106166769931683e-01 -1.554809047913171316e+00 -2.265463974474560271e-01 8.276827435373480313e+00 8.981694036909395606e-01 -3.450150093320343725e+00 2.597711002722978169e+00 -7.641482234935936813e-01 -3.568965819587007537e+00 8.082283458775780360e+00 -1.153762826077464965e+01 -4.564756573103230686e+00 -1.068971852872473427e+01 1.872432051547861853e+00 6.635057192177339580e+00
-3.222500846791723106e+00 -2.345830495291960638e-01 2.580200606039737110e+00 2.128482271586399910e-01 1.281379763151727191e+00 8.073106213815348653e-01 2.283896780204191401e+00 7.523968926794313838e-02 -2.880577316729744930e-01 -4.909115657969157498e-01 7.527870319053742154e-01 -1.439365015188862840e+00 2.952698051916979427e+00 -4.395324151781055733e+00 -1.744860895540274015e+00 -8.349937428294823549e-01 -6.120926043233556602e-01 -8.213228262364287158e-01 -1.801892287825187511e+00 9.219733472126081519e-01 -1.060348279596972088e+00 -2.275803512426159969e+00 4.092931747468043224e-01 3.667763860582352375e+00 -8.657056754738530202e-01 -1.253386206682425064e+00 -1.044949478692579037e+00 4.042364520441443787e+00 3.054713006031575251e+00 -6.563709639196679824e-01
-1.843827755183143235e+00 4.809260687798904699e-01 2.088003899932453056e+00 2.042201698788547404e+00 1.720425437607928876e+00 6.752860057980922814e-01 -1.534545359471045645e+00 -1.444762841033920164e+00 2.593280374545082534e+00 3.075799653241592102e-01 1.080140890478947346e+00 2.106731096998386121e+00 -5.637086040155985245e-01 1.037727609270001405e+00 -6.581107267285944973e-01 8.778413348203333300e-01 -3.789898932726680492e-02 2.828532065217673530e+00 1.855789042298811475e+00 6.074461577282622704e-01 2.094522469738157255e+00 9.739481504922370414e-01 1.944337276850302554e-01 -1.530630803162342790e-01 1.057551330502799924e+00 -1.865954002331329242e+00 -7.478267461480594847e+00 -3.172829700712965995e+00 -1.772484058857544120e+00 -4.096914695126489647e+00
-3.430443408713121922e+00 4.427666266808560902e-02 8.285071575497486851e-01 1.586358594614663886e+00 -9.765073239463989418e-01 -5.244181849644897336e-02 4.364906147674379455e-01 6.943020611858670144e+00 -2.826856374304822506e+00 -1.937146826310953029e+00 -1.550277786749225006e+00 1.707318055452348160e-01 1.048073266447630825e-01 1.671856369279324239e-01 1.627970102947518871e+00 -1.047333662851118730e+00 -2.080524045997346860e+00 1.796547786664103086e+00 2.835427713044181286e-01 3.860845959223767332e-02 9.316000210427837214e-01 7.300183688682067018e-01 4.721705670480718986e+00 6.543378382157889472e-01 3.255299075557742672e+00 -4.517848900352719355e+00 1.911655056268509290e+00 1.840719754002806755e-02 -2.789639035904021735e+00 -5.042051524010348729e+00
-2.849933878279252708e-01 -2.129222080871181699e+00 -1.397381262509546529e+00 -2.409177340216046126e+00 2.014470292019239661e+00 -4.380790321473681637e+00 8.464389066538906548e-01 6.900193537272741873e-01 1.653056975630654291e-01 -2.933391225306452910e+00 -4.924463602448816424e-01 8.546436060521432898e-01 -1.395225135220264256e+00 -2.308964523878225261e+00 -3.427673456204374691e+00 -1.433297262648723924e+00 4.031783710149244304e-01 6.889135221661958353e-01 3.298036315791790241e+00 -2.464701088904621695e+00 -8.512963379918394580e-01 2.782312368307927386e+00 -5.497923527386153753e-01 1.437673280590959113e+00 4.373699269790764177e+00 4.471137968432372101e-01 1.996046073774876639e+00 -2.844402560747027131e+00 4.390344644454917677e+00 4.914559249454269363e+00
-4.111825243500194516e-01 -5.129835112418466014e-01 -2.485594132030590320e+00 -6.314840202348805942e-01 5.473404457172091897e-01 -9.111611376167658705e-01 -1.381715221120479065e+00 2.420560437605010495e+00 -8.079481521741064265e-01 1.317051765580729228e+00 -2.188320074625901057e+00 7.802407080882424184e-01 -7.555962194516059327e-01 -4.438732809950141078e-01 2.093188324197483574e+00 1.029156527640979979e+00 -6.749878092287969755e-01 -9.377780739176593272e-01 -3.119920815577629375e-02 1.003402505054406646e+00 -3.368770917728132197e+00 -6.123468350249585690e-01 1.234332479488017054e+00 1.060782384690607261e+00 5.872176419802902503e-01 2.002611849038523906e-01 3.664767136756034382e+00 8.900980931357204140e-01 -1.585732325254869846e+00 9.122738597348860612e-01
