 vasp.5.4.4.18Apr17-6-g9f103f2a35 (build Jul 12 2018 13:43:46) complex           
 executed on             LinuxGNU date 2019.06.24  13:12:08
 running on    1 total cores
 distrk:  each k-point on    1 cores,    1 groups
 distr:  one band on NCORES_PER_BAND=   1 cores,    1 groups


--------------------------------------------------------------------------------------------------------


 INCAR:
 POTCAR:    PAW_PBE H 15Jun2001                   
 POTCAR:    PAW_PBE C 08Apr2002                   
 POTCAR:    PAW_PBE H 15Jun2001                   
   VRHFIN =H: ultrasoft test                                                    
   LEXCH  = PE                                                                  
   EATOM  =    12.4884 eV,    0.9179 Ry                                         
                                                                                
   TITEL  = PAW_PBE H 15Jun2001                                                 
   LULTRA =        F    use ultrasoft PP ?                                      
   IUNSCR =        0    unscreen: 0-lin 1-nonlin 2-no                           
   RPACOR =    0.000    partial core radius                                     
   POMASS =    1.000; ZVAL   =    1.000    mass and valenz                      
   RCORE  =    1.100    outmost cutoff radius                                   
   RWIGS  =    0.700; RWIGS  =    0.370    wigner-seitz radius (au A)           
   ENMAX  =  250.000; ENMIN  =  200.000 eV                                      
   RCLOC  =    0.701    cutoff for local pot                                    
   LCOR   =        T    correct aug charges                                     
   LPAW   =        T    paw PP                                                  
   EAUG   =  400.000                                                            
   RMAX   =    1.123    core radius for proj-oper                               
   RAUG   =    1.200    factor for augmentation sphere                          
   RDEP   =    1.112    radius for radial grids                                 
   RDEPT  =    0.926    core radius for aug-charge                              
                                                                                
   Atomic configuration                                                         
    2 entries                                                                   
     n  l   j            E        occ.                                          
     1  0  0.50        -6.4927   1.0000                                         
     2  1  0.50        -3.4015   0.0000                                         
   Description                                                                  
     l       E           TYP  RCUT    TYP  RCUT                                 
     0     -6.4927494     23  1.100                                             
     0      6.8029130     23  1.100                                             
     1     -4.0817478     23  1.100                                             
  local pseudopotential read in
  atomic valenz-charges read in
  non local Contribution for L=           0  read in
    real space projection operators read in
  non local Contribution for L=           0  read in
    real space projection operators read in
  non local Contribution for L=           1  read in
    real space projection operators read in
    PAW grid and wavefunctions read in

   number of l-projection  operators is LMAX  =           3
   number of lm-projection operators is LMMAX =           5

 POTCAR:    PAW_PBE C 08Apr2002                   
   VRHFIN =C: s2p2                                                              
   LEXCH  = PE                                                                  
   EATOM  =   147.1560 eV,   10.8157 Ry                                         
                                                                                
   TITEL  = PAW_PBE C 08Apr2002                                                 
   LULTRA =        F    use ultrasoft PP ?                                      
   IUNSCR =        1    unscreen: 0-lin 1-nonlin 2-no                           
   RPACOR =    1.200    partial core radius                                     
   POMASS =   12.011; ZVAL   =    4.000    mass and valenz                      
   RCORE  =    1.500    outmost cutoff radius                                   
   RWIGS  =    1.630; RWIGS  =    0.863    wigner-seitz radius (au A)           
   ENMAX  =  400.000; ENMIN  =  300.000 eV                                      
   ICORE  =        2    local potential                                         
   LCOR   =        T    correct aug charges                                     
   LPAW   =        T    paw PP                                                  
   EAUG   =  644.873                                                            
   DEXC   =    0.000                                                            
   RMAX   =    1.529    core radius for proj-oper                               
   RAUG   =    1.300    factor for augmentation sphere                          
   RDEP   =    1.501    radius for radial grids                                 
   RDEPT  =    1.300    core radius for aug-charge                              
                                                                                
   Atomic configuration                                                         
    4 entries                                                                   
     n  l   j            E        occ.                                          
     1  0  0.50      -273.3789   2.0000                                         
     2  0  0.50       -13.7508   2.0000                                         
     2  1  0.50        -5.2854   2.0000                                         
     3  2  1.50        -5.4423   0.0000                                         
   Description                                                                  
     l       E           TYP  RCUT    TYP  RCUT                                 
     0    -13.7508458     23  1.200                                             
     0     -8.2022199     23  1.200                                             
     1     -5.2854383     23  1.500                                             
     1     34.0145650     23  1.500                                             
     2     -5.4423304      7  1.500                                             
  local pseudopotential read in
  partial core-charges read in
  partial kinetic energy density read in
  atomic valenz-charges read in
  non local Contribution for L=           0  read in
    real space projection operators read in
  non local Contribution for L=           0  read in
    real space projection operators read in
  non local Contribution for L=           1  read in
    real space projection operators read in
  non local Contribution for L=           1  read in
    real space projection operators read in
    PAW grid and wavefunctions read in

   number of l-projection  operators is LMAX  =           4
   number of lm-projection operators is LMMAX =           8


 ----------------------------------------------------------------------------- 
|                                                                             |
|  ADVICE TO THIS USER RUNNING 'VASP/VAMP'   (HEAR YOUR MASTER'S VOICE ...):  |
|                                                                             |
|      You have a (more or less) 'small supercell' and for smaller cells      |
|      it is recommended  to use the reciprocal-space projection scheme!      |
|      The real space optimization is not  efficient for small cells and it   |
|      is also less accurate ...                                              |
|      Therefore set LREAL=.FALSE. in the  INCAR file                         |
|                                                                             |
 ----------------------------------------------------------------------------- 

 Optimization of the real space projectors (new method)

 maximal supplied QI-value         = 34.20
 optimisation between [QCUT,QGAM] = [  9.92, 20.18] = [ 27.55,114.04] Ry 
 Optimized for a Real-space Cutoff    1.34 Angstroem

   l    n(q)    QCUT    max X(q) W(low)/X(q) W(high)/X(q)  e(spline) 
   0      8     9.919    19.460    0.16E-03    0.20E-03    0.36E-06
   0      8     9.919    12.209    0.16E-03    0.20E-03    0.35E-06
   1      8     9.919     4.655    0.19E-03    0.46E-03    0.40E-06
 Optimization of the real space projectors (new method)

 maximal supplied QI-value         = 25.13
 optimisation between [QCUT,QGAM] = [ 10.05, 20.36] = [ 28.30,116.06] Ry 
 Optimized for a Real-space Cutoff    1.51 Angstroem

   l    n(q)    QCUT    max X(q) W(low)/X(q) W(high)/X(q)  e(spline) 
   0      9    10.053   115.676    0.19E-03    0.21E-03    0.38E-06
   0      9    10.053    87.132    0.19E-03    0.21E-03    0.38E-06
   1      9    10.053     4.429    0.87E-04    0.11E-03    0.39E-06
   1      9    10.053     2.733    0.59E-04    0.62E-04    0.43E-06
  PAW_PBE H 15Jun2001                   :
 energy of atom  1       EATOM=  -12.4884
 kinetic energy error for atom=    0.0098 (will be added to EATOM!!)
  PAW_PBE C 08Apr2002                   :
 energy of atom  2       EATOM= -147.1560
 kinetic energy error for atom=    0.0288 (will be added to EATOM!!)


 POSCAR: POSCAR file written by OVITO            
  positions in cartesian coordinates
  No initial velocities read in
 exchange correlation table for  LEXCH =        8
   RHO(1)=    0.500       N(1)  =     2000
   RHO(2)=  100.500       N(2)  =     4000



--------------------------------------------------------------------------------------------------------


 ion  position               nearest neighbor table
   1  0.649  0.402  0.377-   5 1.08
   2  0.382  0.491  0.312-   5 1.11
   3  0.545  0.618  0.534-   5 1.11
   4  0.432  0.353  0.560-   5 1.12
   5  0.503  0.468  0.445-   1 1.08   2 1.11   3 1.11   4 1.12


IMPORTANT INFORMATION: All symmetrisations will be switched off!
NOSYMM: (Re-)initialisation of all symmetry stuff for point group C_1.




Automatic generation of k-mesh.
 generate k-points for:    1    1    1
Space group operators:
 irot       det(A)        alpha          n_x          n_y          n_z        tau_x        tau_y        tau_z
    1     1.000000     0.000000     1.000000     0.000000     0.000000     0.000000     0.000000     0.000000
 
 Subroutine IBZKPT returns following result:
 ===========================================
 
 Found      1 irreducible k-points:
 
 Following reciprocal coordinates:
            Coordinates               Weight
  0.000000  0.000000  0.000000      1.000000
 
 Following cartesian coordinates:
            Coordinates               Weight
  0.000000  0.000000  0.000000      1.000000
 


--------------------------------------------------------------------------------------------------------




 Dimension of arrays:
   k-points           NKPTS =      1   k-points in BZ     NKDIM =      1   number of bands    NBANDS=      8
   number of dos      NEDOS =    301   number of ions     NIONS =      5
   non local maximal  LDIM  =      4   non local SUM 2l+1 LMDIM =      8
   total plane-waves  NPLWV =  67200
   max r-space proj   IRMAX =   4087   max aug-charges    IRDMAX=   3512
   dimension x,y,z NGX =    40 NGY =   42 NGZ =   40
   dimension x,y,z NGXF=    80 NGYF=   84 NGZF=   80
   support grid    NGXF=    80 NGYF=   84 NGZF=   80
   ions per type =               4   1
   NGX,Y,Z   is equivalent  to a cutoff of  10.89, 11.05, 10.71 a.u.
   NGXF,Y,Z  is equivalent  to a cutoff of  21.79, 22.09, 21.42 a.u.

 SYSTEM =  unknown system                          
 POSCAR =  POSCAR file written by OVITO            

 Startparameter for this run:
   NWRITE =      2    write-flag & timer
   PREC   = a         normal or accurate (medium, high low for compatibility)
   ISTART =      0    job   : 0-new  1-cont  2-samecut
   ICHARG =      2    charge: 1-file 2-atom 10-const
   ISPIN  =      1    spin polarized calculation?
   LNONCOLLINEAR =      F non collinear calculations
   LSORBIT =      F    spin-orbit coupling
   INIWAV =      1    electr: 0-lowe 1-rand  2-diag
   LASPH  =      F    aspherical Exc in radial PAW
   METAGGA=      F    non-selfconsistent MetaGGA calc.

 Electronic Relaxation 1
   ENCUT  =  400.0 eV  29.40 Ry    5.42 a.u.   9.95 10.31 10.12*2*pi/ulx,y,z
   ENINI  =  400.0     initial cutoff
   ENAUG  =  644.9 eV  augmentation charge cutoff
   NELM   =    120;   NELMIN=  4; NELMDL= -5     # of ELM steps 
   EDIFF  = 0.1E-05   stopping-criterion for ELM
   LREAL  =      T    real-space projection
   NLSPLINE    = F    spline interpolate recip. space projectors
   LCOMPAT=      F    compatible to vasp.4.4
   GGA_COMPAT  = T    GGA compatible to vasp.4.4-vasp.4.6
   LMAXPAW     = -100 max onsite density
   LMAXMIX     =    2 max onsite mixed and CHGCAR
   VOSKOWN=      0    Vosko Wilk Nusair interpolation
   ROPT   =   -0.00025  -0.00025
 Ionic relaxation
   EDIFFG = 0.1E-04   stopping-criterion for IOM
   NSW    =      0    number of steps for IOM
   NBLOCK =      1;   KBLOCK =      1    inner block; outer block 
   IBRION =     -1    ionic relax: 0-MD 1-quasi-New 2-CG
   NFREE  =      0    steps in history (QN), initial steepest desc. (CG)
   ISIF   =      2    stress and relaxation
   IWAVPR =     10    prediction:  0-non 1-charg 2-wave 3-comb
   ISYM   =      0    0-nonsym 1-usesym 2-fastsym
   LCORR  =      T    Harris-Foulkes like correction to forces

   POTIM  = 0.5000    time-step for ionic-motion
   TEIN   =    0.0    initial temperature
   TEBEG  =    0.0;   TEEND  =   0.0 temperature during run
   SMASS  =  -3.00    Nose mass-parameter (am)
   estimated Nose-frequenzy (Omega)   =  0.10E-29 period in steps =****** mass=  -0.851E-27a.u.
   SCALEE = 1.0000    scale energy and forces
   NPACO  =    256;   APACO  = 16.0  distance and # of slots for P.C.
   PSTRESS=    0.0 pullay stress

  Mass of Ions in am
   POMASS =   1.00 12.01
  Ionic Valenz
   ZVAL   =   1.00  4.00
  Atomic Wigner-Seitz radii
   RWIGS  =  -1.00 -1.00
  virtual crystal weights 
   VCA    =   1.00  1.00
   NELECT =       8.0000    total number of electrons
   NUPDOWN=      -1.0000    fix difference up-down

 DOS related values:
   EMIN   =  10.00;   EMAX   =-10.00  energy-range for DOS
   EFERMI =   0.00
   ISMEAR =     0;   SIGMA  =   0.05  broadening in eV -4-tet -1-fermi 0-gaus

 Electronic relaxation 2 (details)
   IALGO  =     38    algorithm
   LDIAG  =      T    sub-space diagonalisation (order eigenvalues)
   LSUBROT=      F    optimize rotation matrix (better conditioning)
   TURBO    =      0    0=normal 1=particle mesh
   IRESTART =      0    0=no restart 2=restart with 2 vectors
   NREBOOT  =      0    no. of reboots
   NMIN     =      0    reboot dimension
   EREF     =   0.00    reference energy to select bands
   IMIX   =      4    mixing-type and parameters
     AMIX     =   0.40;   BMIX     =  1.00
     AMIX_MAG =   1.60;   BMIX_MAG =  1.00
     AMIN     =   0.10
     WC   =   100.;   INIMIX=   1;  MIXPRE=   1;  MAXMIX= -45

 Intra band minimization:
   WEIMIN = 0.0000     energy-eigenvalue tresh-hold
   EBREAK =  0.31E-07  absolut break condition
   DEPER  =   0.30     relativ break condition  

   TIME   =   0.40     timestep for ELM

  volume/ion in A,a.u.               =      47.87       323.03
  Fermi-wavevector in a.u.,A,eV,Ry     =   0.527353  0.996552  3.783793  0.278101
  Thomas-Fermi vector in A             =   1.548476

 Write flags
   LWAVE        =      F    write WAVECAR
   LDOWNSAMPLE  =      F    k-point downsampling of WAVECAR
   LCHARG       =      F    write CHGCAR
   LVTOT        =      F    write LOCPOT, total local potential
   LVHAR        =      F    write LOCPOT, Hartree potential only
   LELF         =      F    write electronic localiz. function (ELF)
   LORBIT       =      0    0 simple, 1 ext, 2 COOP (PROOUT), +10 PAW based schemes


 Dipole corrections
   LMONO  =      F    monopole corrections only (constant potential shift)
   LDIPOL =      F    correct potential (dipole corrections)
   IDIPOL =      0    1-x, 2-y, 3-z, 4-all directions 
   EPSILON=  1.0000000 bulk dielectric constant

 Exchange correlation treatment:
   GGA     =    --    GGA type
   LEXCH   =     8    internal setting for exchange type
   VOSKOWN=      0    Vosko Wilk Nusair interpolation
   LHFCALC =     F    Hartree Fock is set to
   LHFONE  =     F    Hartree Fock one center treatment
   AEXX    =    0.0000 exact exchange contribution

 Linear response parameters
   LEPSILON=     F    determine dielectric tensor
   LRPA    =     F    only Hartree local field effects (RPA)
   LNABLA  =     F    use nabla operator in PAW spheres
   LVEL    =     F    velocity operator in full k-point grid
   LINTERFAST=   F  fast interpolation
   KINTER  =     0    interpolate to denser k-point grid
   CSHIFT  =0.1000    complex shift for real part using Kramers Kronig
   OMEGAMAX=  -1.0    maximum frequency
   DEG_THRESHOLD= 0.2000000E-02 threshold for treating states as degnerate
   RTIME   =   -0.100 relaxation time in fs
  (WPLASMAI=    0.000 imaginary part of plasma frequency in eV, 0.658/RTIME)
   DFIELD  = 0.0000000 0.0000000 0.0000000 field for delta impulse in time

 Orbital magnetization related:
   ORBITALMAG=     F  switch on orbital magnetization
   LCHIMAG   =     F  perturbation theory with respect to B field
   DQ        =  0.001000  dq finite difference perturbation B field
   LLRAUG    =     F  two centre corrections for induced B field



--------------------------------------------------------------------------------------------------------


 Static calculation
 charge density and potential will be updated during run
 non-spin polarized calculation
 Variant of blocked Davidson
 Davidson routine will perform the subspace rotation
 perform sub-space diagonalisation
    after iterative eigenvector-optimisation
 modified Broyden-mixing scheme, WC =      100.0
 initial mixing is a Kerker type mixing with AMIX =  0.4000 and BMIX =      1.0000
 Hartree-type preconditioning will be used
 using additional bands            4
 real space projection scheme for non local part
 use partial core corrections
 calculate Harris-corrections to forces   (improved forces if not selfconsistent)
 use gradient corrections 
 use of overlap-Matrix (Vanderbilt PP)
 Gauss-broadening in eV      SIGMA  =   0.05


--------------------------------------------------------------------------------------------------------


  energy-cutoff  :      400.00
  volume of cell :      239.34
      direct lattice vectors                 reciprocal lattice vectors
     6.103675800  0.000000000  0.000000000     0.163835700  0.001687755  0.004179064
    -0.065109600  6.320395000  0.000000000    -0.000000000  0.158217959  0.003664663
    -0.156770400 -0.143698900  6.204048600     0.000000000 -0.000000000  0.161185069

  length of vectors
     6.103675800  6.320730355  6.207692435     0.163897681  0.158260394  0.161185069



 k-points in units of 2pi/SCALE and weight: read from INCAR                         
   0.00000000  0.00000000  0.00000000       1.000

 k-points in reciprocal lattice and weights: read from INCAR                         
   0.00000000  0.00000000  0.00000000       1.000

 position of ions in fractional coordinates (direct lattice) 
   0.64906079  0.40183074  0.37746269
   0.38201437  0.49121267  0.31218282
   0.54451816  0.61787797  0.53392831
   0.43239697  0.35255324  0.56004347
   0.50330423  0.46776445  0.44473494

 position of ions in cartesian coordinates  (Angst):
   3.87631860  2.48548800  2.34179690
   2.25076820  3.05979780  1.93679740
   3.19962840  3.82850790  3.31251720
   2.52845810  2.14779810  3.47453690
   2.97182860  2.89254820  2.75915720



--------------------------------------------------------------------------------------------------------


 k-point  1 :   0.0000 0.0000 0.0000  plane waves:    4357

 maximum and minimum number of plane-waves per node :      4357     4357

 maximum number of plane-waves:      4357
 maximum index in each direction: 
   IXMAX=    9   IYMAX=   10   IZMAX=   10
   IXMIN=   -9   IYMIN=  -10   IZMIN=  -10


 serial   3D FFT for wavefunctions
 parallel 3D FFT for charge:
    minimum data exchange during FFTs selected (reduces bandwidth)


 total amount of memory used by VASP MPI-rank0    83799. kBytes
=======================================================================

   base      :      30000. kBytes
   nonlr-proj:       1105. kBytes
   fftplans  :      18760. kBytes
   grid      :      33358. kBytes
   one-center:         15. kBytes
   wavefun   :        561. kBytes

     INWAV:  cpu time    0.0000: real time    0.0000
 Broyden mixing: mesh for mixing (old mesh)
   NGX = 19   NGY = 21   NGZ = 21
  (NGX  = 80   NGY  = 84   NGZ  = 80)
  gives a total of   8379 points

 initial charge density was supplied:
 charge density of overlapping atoms calculated
 number of electron       8.0000000 magnetization 
 keeping initial charge density in first step


--------------------------------------------------------------------------------------------------------


 Maximum index for non-local projection operator         3929
 Maximum index for augmentation-charges         3200 (set IRDMAX)


--------------------------------------------------------------------------------------------------------


 First call to EWALD:  gamma=   0.285
 Maximum number of real-space cells 3x 3x 3
 Maximum number of reciprocal cells 3x 3x 3

    FEWALD:  cpu time    0.0007: real time    0.0007


--------------------------------------- Iteration      1(   1)  ---------------------------------------


    POTLOK:  cpu time    0.3394: real time    0.3404
    SETDIJ:  cpu time    0.0062: real time    0.0062
     EDDAV:  cpu time    0.0927: real time    0.0929
       DOS:  cpu time    0.0001: real time    0.0001
    --------------------------------------------
      LOOP:  cpu time    0.4384: real time    0.4396

 eigenvalue-minimisations  :    16
 total energy-change (2. order) : 0.3631624E+02  (-0.2445250E+03)
 number of electron       8.0000000 magnetization 
 augmentation part        8.0000000 magnetization 

 Free energy of the ion-electron system (eV)
  ---------------------------------------------------
  alpha Z        PSCENC =         1.01217204
  Ewald energy   TEWEN  =        50.93166103
  -Hartree energ DENC   =      -173.25104881
  -exchange      EXHF   =         0.00000000
  -V(xc)+E(xc)   XCENC  =        21.97060538
  PAW double counting   =       117.05815612     -117.66307307
  entropy T*S    EENTRO =        -0.00000000
  eigenvalues    EBANDS =       -60.78398296
  atomic energy  EATOM  =       197.04175453
  Solvation  Ediel_sol  =         0.00000000
  ---------------------------------------------------
  free energy    TOTEN  =        36.31624427 eV

  energy without entropy =       36.31624427  energy(sigma->0) =       36.31624427


--------------------------------------------------------------------------------------------------------




--------------------------------------- Iteration      1(   2)  ---------------------------------------


     EDDAV:  cpu time    0.0856: real time    0.0860
       DOS:  cpu time    0.0001: real time    0.0001
    --------------------------------------------
      LOOP:  cpu time    0.0857: real time    0.0861

 eigenvalue-minimisations  :    16
 total energy-change (2. order) :-0.5563880E+02  (-0.5563880E+02)
 number of electron       8.0000000 magnetization 
 augmentation part        8.0000000 magnetization 

 Free energy of the ion-electron system (eV)
  ---------------------------------------------------
  alpha Z        PSCENC =         1.01217204
  Ewald energy   TEWEN  =        50.93166103
  -Hartree energ DENC   =      -173.25104881
  -exchange      EXHF   =         0.00000000
  -V(xc)+E(xc)   XCENC  =        21.97060538
  PAW double counting   =       117.05815612     -117.66307307
  entropy T*S    EENTRO =        -0.00000000
  eigenvalues    EBANDS =      -116.42278709
  atomic energy  EATOM  =       197.04175453
  Solvation  Ediel_sol  =         0.00000000
  ---------------------------------------------------
  free energy    TOTEN  =       -19.32255986 eV

  energy without entropy =      -19.32255986  energy(sigma->0) =      -19.32255986


--------------------------------------------------------------------------------------------------------




--------------------------------------- Iteration      1(   3)  ---------------------------------------


     EDDAV:  cpu time    0.0850: real time    0.0852
       DOS:  cpu time    0.0001: real time    0.0001
    --------------------------------------------
      LOOP:  cpu time    0.0851: real time    0.0853

 eigenvalue-minimisations  :    16
 total energy-change (2. order) :-0.7753401E+01  (-0.7753401E+01)
 number of electron       8.0000000 magnetization 
 augmentation part        8.0000000 magnetization 

 Free energy of the ion-electron system (eV)
  ---------------------------------------------------
  alpha Z        PSCENC =         1.01217204
  Ewald energy   TEWEN  =        50.93166103
  -Hartree energ DENC   =      -173.25104881
  -exchange      EXHF   =         0.00000000
  -V(xc)+E(xc)   XCENC  =        21.97060538
  PAW double counting   =       117.05815612     -117.66307307
  entropy T*S    EENTRO =        -0.00000000
  eigenvalues    EBANDS =      -124.17618808
  atomic energy  EATOM  =       197.04175453
  Solvation  Ediel_sol  =         0.00000000
  ---------------------------------------------------
  free energy    TOTEN  =       -27.07596085 eV

  energy without entropy =      -27.07596085  energy(sigma->0) =      -27.07596085


--------------------------------------------------------------------------------------------------------




--------------------------------------- Iteration      1(   4)  ---------------------------------------


     EDDAV:  cpu time    0.1543: real time    0.1547
       DOS:  cpu time    0.0001: real time    0.0001
    --------------------------------------------
      LOOP:  cpu time    0.1544: real time    0.1548

 eigenvalue-minimisations  :    32
 total energy-change (2. order) :-0.3446076E+00  (-0.3446076E+00)
 number of electron       8.0000000 magnetization 
 augmentation part        8.0000000 magnetization 

 Free energy of the ion-electron system (eV)
  ---------------------------------------------------
  alpha Z        PSCENC =         1.01217204
  Ewald energy   TEWEN  =        50.93166103
  -Hartree energ DENC   =      -173.25104881
  -exchange      EXHF   =         0.00000000
  -V(xc)+E(xc)   XCENC  =        21.97060538
  PAW double counting   =       117.05815612     -117.66307307
  entropy T*S    EENTRO =        -0.00000000
  eigenvalues    EBANDS =      -124.52079572
  atomic energy  EATOM  =       197.04175453
  Solvation  Ediel_sol  =         0.00000000
  ---------------------------------------------------
  free energy    TOTEN  =       -27.42056849 eV

  energy without entropy =      -27.42056849  energy(sigma->0) =      -27.42056849


--------------------------------------------------------------------------------------------------------




--------------------------------------- Iteration      1(   5)  ---------------------------------------


     EDDAV:  cpu time    0.0851: real time    0.0853
       DOS:  cpu time    0.0001: real time    0.0001
    CHARGE:  cpu time    0.0199: real time    0.0200
    MIXING:  cpu time    0.0070: real time    0.0070
    --------------------------------------------
      LOOP:  cpu time    0.1121: real time    0.1124

 eigenvalue-minimisations  :    16
 total energy-change (2. order) :-0.8922058E-04  (-0.8922058E-04)
 number of electron       8.0000000 magnetization 
 augmentation part        0.2229519 magnetization 

 Broyden mixing:
  rms(total) = 0.86050E+00    rms(broyden)= 0.86032E+00
  rms(prec ) = 0.16345E+01
  weight for this iteration     100.00

 Free energy of the ion-electron system (eV)
  ---------------------------------------------------
  alpha Z        PSCENC =         1.01217204
  Ewald energy   TEWEN  =        50.93166103
  -Hartree energ DENC   =      -173.25104881
  -exchange      EXHF   =         0.00000000
  -V(xc)+E(xc)   XCENC  =        21.97060538
  PAW double counting   =       117.05815612     -117.66307307
  entropy T*S    EENTRO =        -0.00000000
  eigenvalues    EBANDS =      -124.52088494
  atomic energy  EATOM  =       197.04175453
  Solvation  Ediel_sol  =         0.00000000
  ---------------------------------------------------
  free energy    TOTEN  =       -27.42065771 eV

  energy without entropy =      -27.42065771  energy(sigma->0) =      -27.42065771


--------------------------------------------------------------------------------------------------------




--------------------------------------- Iteration      1(   6)  ---------------------------------------


    POTLOK:  cpu time    0.3176: real time    0.3183
    SETDIJ:  cpu time    0.0061: real time    0.0061
     EDDAV:  cpu time    0.1219: real time    0.1222
       DOS:  cpu time    0.0001: real time    0.0001
    CHARGE:  cpu time    0.0169: real time    0.0169
    MIXING:  cpu time    0.0073: real time    0.0074
    --------------------------------------------
      LOOP:  cpu time    0.4699: real time    0.4710

 eigenvalue-minimisations  :    24
 total energy-change (2. order) : 0.2834499E+01  (-0.8696332E+00)
 number of electron       8.0000000 magnetization 
 augmentation part        0.1955769 magnetization 

 Broyden mixing:
  rms(total) = 0.43819E+00    rms(broyden)= 0.43809E+00
  rms(prec ) = 0.69413E+00
  weight for this iteration     100.00

 eigenvalues of (default mixing * dielectric matrix)
  average eigenvalue GAMMA=   1.2027
  1.2027

 Free energy of the ion-electron system (eV)
  ---------------------------------------------------
  alpha Z        PSCENC =         1.01217204
  Ewald energy   TEWEN  =        50.93166103
  -Hartree energ DENC   =      -192.61091855
  -exchange      EXHF   =         0.00000000
  -V(xc)+E(xc)   XCENC  =        23.16940954
  PAW double counting   =       236.12292340     -236.89918120
  entropy T*S    EENTRO =        -0.00000000
  eigenvalues    EBANDS =      -103.35397956
  atomic energy  EATOM  =       197.04175453
  Solvation  Ediel_sol  =         0.00000000
  ---------------------------------------------------
  free energy    TOTEN  =       -24.58615878 eV

  energy without entropy =      -24.58615878  energy(sigma->0) =      -24.58615878


--------------------------------------------------------------------------------------------------------




--------------------------------------- Iteration      1(   7)  ---------------------------------------


    POTLOK:  cpu time    0.3359: real time    0.3367
    SETDIJ:  cpu time    0.0064: real time    0.0064
     EDDAV:  cpu time    0.1539: real time    0.1543
       DOS:  cpu time    0.0002: real time    0.0002
    CHARGE:  cpu time    0.0156: real time    0.0156
    MIXING:  cpu time    0.0074: real time    0.0075
    --------------------------------------------
      LOOP:  cpu time    0.5194: real time    0.5207

 eigenvalue-minimisations  :    32
 total energy-change (2. order) : 0.4874481E+00  (-0.7537084E-01)
 number of electron       8.0000000 magnetization 
 augmentation part        0.1870834 magnetization 

 Broyden mixing:
  rms(total) = 0.22284E+00    rms(broyden)= 0.22280E+00
  rms(prec ) = 0.33617E+00
  weight for this iteration     100.00

 eigenvalues of (default mixing * dielectric matrix)
  average eigenvalue GAMMA=   1.7282
  1.2565  2.1999

 Free energy of the ion-electron system (eV)
  ---------------------------------------------------
  alpha Z        PSCENC =         1.01217204
  Ewald energy   TEWEN  =        50.93166103
  -Hartree energ DENC   =      -202.61268828
  -exchange      EXHF   =         0.00000000
  -V(xc)+E(xc)   XCENC  =        23.95348954
  PAW double counting   =       360.67233144     -361.47642528
  entropy T*S    EENTRO =        -0.00000000
  eigenvalues    EBANDS =       -93.62100571
  atomic energy  EATOM  =       197.04175453
  Solvation  Ediel_sol  =         0.00000000
  ---------------------------------------------------
  free energy    TOTEN  =       -24.09871069 eV

  energy without entropy =      -24.09871069  energy(sigma->0) =      -24.09871069


--------------------------------------------------------------------------------------------------------




--------------------------------------- Iteration      1(   8)  ---------------------------------------


    POTLOK:  cpu time    0.3062: real time    0.3069
    SETDIJ:  cpu time    0.0061: real time    0.0061
     EDDAV:  cpu time    0.1543: real time    0.1547
       DOS:  cpu time    0.0001: real time    0.0001
    CHARGE:  cpu time    0.0147: real time    0.0147
    MIXING:  cpu time    0.0075: real time    0.0076
    --------------------------------------------
      LOOP:  cpu time    0.4889: real time    0.4900

 eigenvalue-minimisations  :    32
 total energy-change (2. order) : 0.1528756E+00  (-0.1775236E-01)
 number of electron       8.0000000 magnetization 
 augmentation part        0.1845133 magnetization 

 Broyden mixing:
  rms(total) = 0.31025E-01    rms(broyden)= 0.31005E-01
  rms(prec ) = 0.68897E-01
  weight for this iteration     100.00

 eigenvalues of (default mixing * dielectric matrix)
  average eigenvalue GAMMA=   1.7197
  1.2095  1.9747  1.9747

 Free energy of the ion-electron system (eV)
  ---------------------------------------------------
  alpha Z        PSCENC =         1.01217204
  Ewald energy   TEWEN  =        50.93166103
  -Hartree energ DENC   =      -209.37030979
  -exchange      EXHF   =         0.00000000
  -V(xc)+E(xc)   XCENC  =        24.59366288
  PAW double counting   =       476.06477583     -476.85228549
  entropy T*S    EENTRO =        -0.00000000
  eigenvalues    EBANDS =       -87.36726608
  atomic energy  EATOM  =       197.04175453
  Solvation  Ediel_sol  =         0.00000000
  ---------------------------------------------------
  free energy    TOTEN  =       -23.94583505 eV

  energy without entropy =      -23.94583505  energy(sigma->0) =      -23.94583505


--------------------------------------------------------------------------------------------------------




--------------------------------------- Iteration      1(   9)  ---------------------------------------


    POTLOK:  cpu time    0.3466: real time    0.3474
    SETDIJ:  cpu time    0.0061: real time    0.0061
     EDDAV:  cpu time    0.0886: real time    0.0889
       DOS:  cpu time    0.0001: real time    0.0001
    CHARGE:  cpu time    0.0148: real time    0.0149
    MIXING:  cpu time    0.0076: real time    0.0076
    --------------------------------------------
      LOOP:  cpu time    0.4638: real time    0.4649

 eigenvalue-minimisations  :    16
 total energy-change (2. order) :-0.4033983E-02  (-0.6048082E-03)
 number of electron       8.0000000 magnetization 
 augmentation part        0.1839850 magnetization 

 Broyden mixing:
  rms(total) = 0.69943E-02    rms(broyden)= 0.69878E-02
  rms(prec ) = 0.19854E-01
  weight for this iteration     100.00

 eigenvalues of (default mixing * dielectric matrix)
  average eigenvalue GAMMA=   1.8942
  2.9758  2.4207  0.9679  1.2125

 Free energy of the ion-electron system (eV)
  ---------------------------------------------------
  alpha Z        PSCENC =         1.01217204
  Ewald energy   TEWEN  =        50.93166103
  -Hartree energ DENC   =      -210.93827741
  -exchange      EXHF   =         0.00000000
  -V(xc)+E(xc)   XCENC  =        24.67739642
  PAW double counting   =       458.06557592     -458.84899354
  entropy T*S    EENTRO =        -0.00000000
  eigenvalues    EBANDS =       -85.89115802
  atomic energy  EATOM  =       197.04175453
  Solvation  Ediel_sol  =         0.00000000
  ---------------------------------------------------
  free energy    TOTEN  =       -23.94986904 eV

  energy without entropy =      -23.94986904  energy(sigma->0) =      -23.94986904


--------------------------------------------------------------------------------------------------------




--------------------------------------- Iteration      1(  10)  ---------------------------------------


    POTLOK:  cpu time    0.3066: real time    0.3073
    SETDIJ:  cpu time    0.0061: real time    0.0061
     EDDAV:  cpu time    0.1346: real time    0.1349
       DOS:  cpu time    0.0001: real time    0.0001
    CHARGE:  cpu time    0.0160: real time    0.0161
    MIXING:  cpu time    0.0081: real time    0.0081
    --------------------------------------------
      LOOP:  cpu time    0.4714: real time    0.4726

 eigenvalue-minimisations  :    24
 total energy-change (2. order) :-0.1702527E-02  (-0.3498621E-04)
 number of electron       8.0000000 magnetization 
 augmentation part        0.1838839 magnetization 

 Broyden mixing:
  rms(total) = 0.50358E-02    rms(broyden)= 0.50350E-02
  rms(prec ) = 0.10970E-01
  weight for this iteration     100.00

 eigenvalues of (default mixing * dielectric matrix)
  average eigenvalue GAMMA=   2.0831
  3.7225  1.0217  1.2202  2.2256  2.2256

 Free energy of the ion-electron system (eV)
  ---------------------------------------------------
  alpha Z        PSCENC =         1.01217204
  Ewald energy   TEWEN  =        50.93166103
  -Hartree energ DENC   =      -211.28487555
  -exchange      EXHF   =         0.00000000
  -V(xc)+E(xc)   XCENC  =        24.69795069
  PAW double counting   =       456.80810319     -457.59019865
  entropy T*S    EENTRO =        -0.00000000
  eigenvalues    EBANDS =       -85.56813884
  atomic energy  EATOM  =       197.04175453
  Solvation  Ediel_sol  =         0.00000000
  ---------------------------------------------------
  free energy    TOTEN  =       -23.95157156 eV

  energy without entropy =      -23.95157156  energy(sigma->0) =      -23.95157156


--------------------------------------------------------------------------------------------------------




--------------------------------------- Iteration      1(  11)  ---------------------------------------


    POTLOK:  cpu time    0.3293: real time    0.3302
    SETDIJ:  cpu time    0.0062: real time    0.0062
     EDDAV:  cpu time    0.0878: real time    0.0880
       DOS:  cpu time    0.0001: real time    0.0001
    CHARGE:  cpu time    0.0155: real time    0.0156
    MIXING:  cpu time    0.0084: real time    0.0084
    --------------------------------------------
      LOOP:  cpu time    0.4473: real time    0.4484

 eigenvalue-minimisations  :    16
 total energy-change (2. order) :-0.3374607E-02  (-0.3090903E-04)
 number of electron       8.0000000 magnetization 
 augmentation part        0.1839191 magnetization 

 Broyden mixing:
  rms(total) = 0.21165E-02    rms(broyden)= 0.21159E-02
  rms(prec ) = 0.39461E-02
  weight for this iteration     100.00

 eigenvalues of (default mixing * dielectric matrix)
  average eigenvalue GAMMA=   2.0561
  3.9740  2.8237  2.3697  1.2052  0.9820  0.9820

 Free energy of the ion-electron system (eV)
  ---------------------------------------------------
  alpha Z        PSCENC =         1.01217204
  Ewald energy   TEWEN  =        50.93166103
  -Hartree energ DENC   =      -211.41678900
  -exchange      EXHF   =         0.00000000
  -V(xc)+E(xc)   XCENC  =        24.70086183
  PAW double counting   =       457.72695445     -458.50908546
  entropy T*S    EENTRO =        -0.00000000
  eigenvalues    EBANDS =       -85.44247559
  atomic energy  EATOM  =       197.04175453
  Solvation  Ediel_sol  =         0.00000000
  ---------------------------------------------------
  free energy    TOTEN  =       -23.95494617 eV

  energy without entropy =      -23.95494617  energy(sigma->0) =      -23.95494617


--------------------------------------------------------------------------------------------------------




--------------------------------------- Iteration      1(  12)  ---------------------------------------


    POTLOK:  cpu time    0.3103: real time    0.3111
    SETDIJ:  cpu time    0.0061: real time    0.0061
     EDDAV:  cpu time    0.0877: real time    0.0879
       DOS:  cpu time    0.0001: real time    0.0001
    CHARGE:  cpu time    0.0149: real time    0.0149
    MIXING:  cpu time    0.0081: real time    0.0081
    --------------------------------------------
      LOOP:  cpu time    0.4272: real time    0.4282

 eigenvalue-minimisations  :    16
 total energy-change (2. order) :-0.6059728E-03  (-0.7551697E-05)
 number of electron       8.0000000 magnetization 
 augmentation part        0.1838890 magnetization 

 Broyden mixing:
  rms(total) = 0.81612E-03    rms(broyden)= 0.81605E-03
  rms(prec ) = 0.13728E-02
  weight for this iteration     100.00

 eigenvalues of (default mixing * dielectric matrix)
  average eigenvalue GAMMA=   2.0813
  4.2966  2.8722  2.2332  1.9194  1.1960  0.9675  1.0842

 Free energy of the ion-electron system (eV)
  ---------------------------------------------------
  alpha Z        PSCENC =         1.01217204
  Ewald energy   TEWEN  =        50.93166103
  -Hartree energ DENC   =      -211.40826081
  -exchange      EXHF   =         0.00000000
  -V(xc)+E(xc)   XCENC  =        24.69782156
  PAW double counting   =       457.92162252     -458.70434739
  entropy T*S    EENTRO =        -0.00000000
  eigenvalues    EBANDS =       -85.44797562
  atomic energy  EATOM  =       197.04175453
  Solvation  Ediel_sol  =         0.00000000
  ---------------------------------------------------
  free energy    TOTEN  =       -23.95555214 eV

  energy without entropy =      -23.95555214  energy(sigma->0) =      -23.95555214


--------------------------------------------------------------------------------------------------------




--------------------------------------- Iteration      1(  13)  ---------------------------------------


    POTLOK:  cpu time    0.3128: real time    0.3136
    SETDIJ:  cpu time    0.0064: real time    0.0064
     EDDAV:  cpu time    0.0886: real time    0.0889
       DOS:  cpu time    0.0001: real time    0.0001
    CHARGE:  cpu time    0.0149: real time    0.0150
    MIXING:  cpu time    0.0083: real time    0.0083
    --------------------------------------------
      LOOP:  cpu time    0.4312: real time    0.4322

 eigenvalue-minimisations  :    16
 total energy-change (2. order) :-0.2352671E-03  (-0.2166877E-05)
 number of electron       8.0000000 magnetization 
 augmentation part        0.1838765 magnetization 

 Broyden mixing:
  rms(total) = 0.57994E-03    rms(broyden)= 0.57979E-03
  rms(prec ) = 0.88547E-03
  weight for this iteration     100.00

 eigenvalues of (default mixing * dielectric matrix)
  average eigenvalue GAMMA=   2.0849
  4.4962  3.2561  2.3038  2.3038  1.1568  1.1568  1.0030  1.0030

 Free energy of the ion-electron system (eV)
  ---------------------------------------------------
  alpha Z        PSCENC =         1.01217204
  Ewald energy   TEWEN  =        50.93166103
  -Hartree energ DENC   =      -211.40292835
  -exchange      EXHF   =         0.00000000
  -V(xc)+E(xc)   XCENC  =        24.69662343
  PAW double counting   =       457.73681281     -458.51952463
  entropy T*S    EENTRO =        -0.00000000
  eigenvalues    EBANDS =       -85.45235826
  atomic energy  EATOM  =       197.04175453
  Solvation  Ediel_sol  =         0.00000000
  ---------------------------------------------------
  free energy    TOTEN  =       -23.95578741 eV

  energy without entropy =      -23.95578741  energy(sigma->0) =      -23.95578741


--------------------------------------------------------------------------------------------------------




--------------------------------------- Iteration      1(  14)  ---------------------------------------


    POTLOK:  cpu time    0.3108: real time    0.3116
    SETDIJ:  cpu time    0.0061: real time    0.0061
     EDDAV:  cpu time    0.1555: real time    0.1558
       DOS:  cpu time    0.0001: real time    0.0001
    CHARGE:  cpu time    0.0151: real time    0.0152
    MIXING:  cpu time    0.0086: real time    0.0086
    --------------------------------------------
      LOOP:  cpu time    0.4962: real time    0.4974

 eigenvalue-minimisations  :    32
 total energy-change (2. order) :-0.2970314E-04  (-0.3275595E-06)
 number of electron       8.0000000 magnetization 
 augmentation part        0.1838850 magnetization 

 Broyden mixing:
  rms(total) = 0.12261E-03    rms(broyden)= 0.12257E-03
  rms(prec ) = 0.20304E-03
  weight for this iteration     100.00

 eigenvalues of (default mixing * dielectric matrix)
  average eigenvalue GAMMA=   2.1446
  4.6554  3.3148  2.7443  2.4319  1.6445  1.2518  1.2518  0.9946  1.0121

 Free energy of the ion-electron system (eV)
  ---------------------------------------------------
  alpha Z        PSCENC =         1.01217204
  Ewald energy   TEWEN  =        50.93166103
  -Hartree energ DENC   =      -211.40237322
  -exchange      EXHF   =         0.00000000
  -V(xc)+E(xc)   XCENC  =        24.69697445
  PAW double counting   =       457.93298405     -458.71555951
  entropy T*S    EENTRO =        -0.00000000
  eigenvalues    EBANDS =       -85.45343048
  atomic energy  EATOM  =       197.04175453
  Solvation  Ediel_sol  =         0.00000000
  ---------------------------------------------------
  free energy    TOTEN  =       -23.95581711 eV

  energy without entropy =      -23.95581711  energy(sigma->0) =      -23.95581711


--------------------------------------------------------------------------------------------------------




--------------------------------------- Iteration      1(  15)  ---------------------------------------


    POTLOK:  cpu time    0.3167: real time    0.3174
    SETDIJ:  cpu time    0.0061: real time    0.0061
     EDDAV:  cpu time    0.0914: real time    0.0916
       DOS:  cpu time    0.0001: real time    0.0001
    CHARGE:  cpu time    0.0194: real time    0.0195
    MIXING:  cpu time    0.0116: real time    0.0116
    --------------------------------------------
      LOOP:  cpu time    0.4453: real time    0.4463

 eigenvalue-minimisations  :    16
 total energy-change (2. order) :-0.1065468E-04  (-0.7470107E-07)
 number of electron       8.0000000 magnetization 
 augmentation part        0.1838840 magnetization 

 Broyden mixing:
  rms(total) = 0.66062E-04    rms(broyden)= 0.66059E-04
  rms(prec ) = 0.96069E-04
  weight for this iteration     100.00

 eigenvalues of (default mixing * dielectric matrix)
  average eigenvalue GAMMA=   2.0775
  4.7165  3.5403  2.6449  2.3538  2.0042  1.1969  1.1969  0.9871  1.0670  1.0670

 Free energy of the ion-electron system (eV)
  ---------------------------------------------------
  alpha Z        PSCENC =         1.01217204
  Ewald energy   TEWEN  =        50.93166103
  -Hartree energ DENC   =      -211.40319730
  -exchange      EXHF   =         0.00000000
  -V(xc)+E(xc)   XCENC  =        24.69701352
  PAW double counting   =       457.88906292     -458.67161950
  entropy T*S    EENTRO =        -0.00000000
  eigenvalues    EBANDS =       -85.45267500
  atomic energy  EATOM  =       197.04175453
  Solvation  Ediel_sol  =         0.00000000
  ---------------------------------------------------
  free energy    TOTEN  =       -23.95582777 eV

  energy without entropy =      -23.95582777  energy(sigma->0) =      -23.95582777


--------------------------------------------------------------------------------------------------------




--------------------------------------- Iteration      1(  16)  ---------------------------------------


    POTLOK:  cpu time    0.3240: real time    0.3247
    SETDIJ:  cpu time    0.0062: real time    0.0062
     EDDAV:  cpu time    0.1233: real time    0.1236
       DOS:  cpu time    0.0001: real time    0.0001
    --------------------------------------------
      LOOP:  cpu time    0.4535: real time    0.4546

 eigenvalue-minimisations  :    24
 total energy-change (2. order) :-0.5253870E-06  (-0.4251049E-08)
 number of electron       8.0000000 magnetization 
 augmentation part        0.1838840 magnetization 

 Free energy of the ion-electron system (eV)
  ---------------------------------------------------
  alpha Z        PSCENC =         1.01217204
  Ewald energy   TEWEN  =        50.93166103
  -Hartree energ DENC   =      -211.40286460
  -exchange      EXHF   =         0.00000000
  -V(xc)+E(xc)   XCENC  =        24.69703105
  PAW double counting   =       457.90913086     -458.69168518
  entropy T*S    EENTRO =        -0.00000000
  eigenvalues    EBANDS =       -85.45302801
  atomic energy  EATOM  =       197.04175453
  Solvation  Ediel_sol  =         0.00000000
  ---------------------------------------------------
  free energy    TOTEN  =       -23.95582829 eV

  energy without entropy =      -23.95582829  energy(sigma->0) =      -23.95582829


--------------------------------------------------------------------------------------------------------




 average (electrostatic) potential at core
  the test charge radii are     0.5201  0.6991
  (the norm of the test charge is              1.0000)
       1 -41.1920       2 -40.9666       3 -40.9499       4 -40.8219       5 -57.5253



 E-fermi :  -8.3888     XC(G=0):  -2.3594     alpha+bet : -0.8802


 k-point     1 :       0.0000    0.0000    0.0000
  band No.  band energies     occupation 
      1     -16.3672      2.00000
      2      -8.8939      2.00000
      3      -8.8283      2.00000
      4      -8.6371      2.00000
      5      -0.8140      0.00000
      6       2.1193      0.00000
      7       2.3900      0.00000
      8       2.9870      0.00000


--------------------------------------------------------------------------------------------------------


 soft charge-density along one line, spin component           1
         0         1         2         3         4         5         6         7         8         9
 total charge-density along one line

 pseudopotential strength for first ion, spin component:           1
 -2.336  -4.024  -0.001  -0.001   0.002
 -4.024  -6.847  -0.002  -0.002   0.005
 -0.001  -0.002  -0.338   0.001  -0.002
 -0.001  -0.002   0.001  -0.338  -0.002
  0.002   0.005  -0.002  -0.002  -0.335
 total augmentation occupancy for first ion, spin component:           1
  3.629  -0.650   0.173   0.178  -0.383
 -0.650   0.132  -0.032  -0.032   0.071
  0.173  -0.032   0.017   0.007  -0.015
  0.178  -0.032   0.007   0.017  -0.016
 -0.383   0.071  -0.015  -0.016   0.044


------------------------ aborting loop because EDIFF is reached ----------------------------------------


    CHARGE:  cpu time    0.0149: real time    0.0150
    FORLOC:  cpu time    0.0226: real time    0.0227
    FORNL :  cpu time    0.0380: real time    0.0381
    STRESS:  cpu time    0.1362: real time    0.1365
    FORCOR:  cpu time    0.3099: real time    0.3106
    FORHAR:  cpu time    0.1028: real time    0.1031
    MIXING:  cpu time    0.0089: real time    0.0089
    OFIELD:  cpu time    0.0000: real time    0.0000

  FORCE on cell =-STRESS in cart. coord.  units (eV):
  Direction    XX          YY          ZZ          XY          YZ          ZX
  --------------------------------------------------------------------------------------
  Alpha Z     1.01217     1.01217     1.01217
  Ewald      20.78816    11.90559    18.23783     0.10723     1.62778    -0.39884
  Hartree    73.27901    67.02280    71.10078     0.24142    -0.19234    -0.34896
  E(xc)     -27.16492   -27.16406   -27.15059     0.00959     0.00720     0.00405
  Local    -153.33996  -138.97910  -148.90281    -0.56264    -0.85407     0.66440
  n-local   -15.84978   -15.73530   -15.74844     0.06008    -0.01955     0.03317
  augment     0.11443     0.12229     0.11871     0.00299    -0.00487     0.00146
  Kinetic   101.17272   100.99756   100.37175    -0.48434    -0.38457    -0.22839
  Fock        0.00000     0.00000     0.00000     0.00000     0.00000     0.00000
  -------------------------------------------------------------------------------------
  Total       0.01184    -0.81805    -0.96059    -0.62566     0.17957    -0.27311
  in kB       0.07925    -5.47623    -6.43039    -4.18833     1.20208    -1.82829
  external pressure =       -3.94 kB  Pullay stress =        0.00 kB


 VOLUME and BASIS-vectors are now :
 -----------------------------------------------------------------------------
  energy-cutoff  :      400.00
  volume of cell :      239.34
      direct lattice vectors                 reciprocal lattice vectors
     6.103675800  0.000000000  0.000000000     0.163835700  0.001687755  0.004179064
    -0.065109600  6.320395000  0.000000000    -0.000000000  0.158217959  0.003664663
    -0.156770400 -0.143698900  6.204048600     0.000000000 -0.000000000  0.161185069

  length of vectors
     6.103675800  6.320730355  6.207692435     0.163897681  0.158260394  0.161185069


 FORCES acting on ions
    electron-ion (+dipol)            ewald-force                    non-local-force                 convergence-correction
 -----------------------------------------------------------------------------------------------
   -.436E+02 0.197E+02 0.203E+02   0.491E+02 -.222E+02 -.227E+02   -.489E+01 0.221E+01 0.227E+01   -.624E-04 0.133E-04 0.783E-05
   0.329E+02 -.785E+01 0.376E+02   -.363E+02 0.876E+01 -.413E+02   0.349E+01 -.771E+00 0.400E+01   0.640E-04 -.111E-04 0.113E-04
   -.104E+02 -.426E+02 -.252E+02   0.113E+02 0.467E+02 0.275E+02   -.110E+01 -.445E+01 -.267E+01   0.115E-04 -.133E-04 -.421E-04
   0.197E+02 0.331E+02 -.318E+02   -.214E+02 -.360E+02 0.346E+02   0.202E+01 0.339E+01 -.325E+01   0.397E-04 -.798E-05 -.421E-04
   0.220E+01 -.243E+01 -.162E+01   -.269E+01 0.264E+01 0.200E+01   -.449E+00 -.277E+00 0.343E+00   0.193E-03 -.983E-04 -.217E-03
 -----------------------------------------------------------------------------------------------
   0.922E+00 -.906E-01 -.695E+00   0.355E-14 0.000E+00 -.711E-14   -.923E+00 0.905E-01 0.695E+00   0.245E-03 -.117E-03 -.282E-03


 POSITION                                       TOTAL-FORCE (eV/Angst)
 -----------------------------------------------------------------------------------
      3.87632      2.48549      2.34180         0.601391     -0.247422     -0.200858
      2.25077      3.05980      1.93680         0.187467      0.135408      0.325568
      3.19963      3.82851      3.31252        -0.175578     -0.348374     -0.343286
      2.52846      2.14780      3.47454         0.327874      0.531779     -0.501524
      2.97183      2.89255      2.75916        -0.941154     -0.071391      0.720100
 -----------------------------------------------------------------------------------
    total drift:                               -0.000979     -0.000258     -0.000265


--------------------------------------------------------------------------------------------------------



  FREE ENERGIE OF THE ION-ELECTRON SYSTEM (eV)
  ---------------------------------------------------
  free  energy   TOTEN  =       -23.95582829 eV

  energy  without entropy=      -23.95582829  energy(sigma->0) =      -23.95582829



--------------------------------------------------------------------------------------------------------


    POTLOK:  cpu time    0.3193: real time    0.3201


--------------------------------------------------------------------------------------------------------


     LOOP+:  cpu time    6.9530: real time    6.9871
    4ORBIT:  cpu time    0.0000: real time    0.0000

 total amount of memory used by VASP MPI-rank0    83799. kBytes
=======================================================================

   base      :      30000. kBytes
   nonlr-proj:       1105. kBytes
   fftplans  :      18760. kBytes
   grid      :      33358. kBytes
   one-center:         15. kBytes
   wavefun   :        561. kBytes

  
  
 General timing and accounting informations for this job:
 ========================================================
  
                  Total CPU time used (sec):        7.450
                            User time (sec):        7.228
                          System time (sec):        0.223
                         Elapsed time (sec):        7.494
  
                   Maximum memory used (kb):      102448.
                   Average memory used (kb):           0.
  
                          Minor page faults:        87607
                          Major page faults:            0
                 Voluntary context switches:          135
