5.126039999999999708e+01 1.193009999999999948e+01 8.385519999999999641e+01 5.216472000000000264e+01 1.171370699999999943e+01 8.442395299999999736e+01 4.808820000000000050e+01 9.748409999999999798e+00 8.157240000000000180e+01 4.872189999999999799e+01 8.925919999999999632e+00 8.177580000000000382e+01 4.804370000000000118e+01 9.554850000000000065e+00 8.606229999999999336e+01 4.788969999999999771e+01 8.977349999999999497e+00 8.697560000000000002e+01
