4.074158013431043557e+00 -9.741276649297969659e-01 2.564010522361018118e+00 -4.073519762729527649e+00 9.749511893404303464e-01 -2.563498872789629068e+00 -5.244286647818414693e+00 6.808681797550522496e+00 -1.683223320139101142e+00 5.243784871283980742e+00 -6.808637111773885309e+00 1.685577216699897463e+00 3.216290398014337026e-01 1.207815250575960286e+00 -1.918540059727049440e+00 -3.217655139685158816e-01 -1.208683512185298126e+00 1.915674565016931119e+00
