1.047860000000000014e+02 6.722680000000000433e+00 3.246919999999999806e+00 1.078979999999999961e+02 5.456120000000000303e+00 3.839409999999999989e+00 1.057740000000000009e+02 5.950820000000000221e+00 2.814340000000000064e+00 1.063739999999999952e+02 5.401010000000000311e+00 3.919049999999999923e+00
7.763890000000000668e+01 1.185130000000000052e+02 1.374269999999999925e+02 7.700969999999999516e+01 1.179339999999999975e+02 1.381310000000000002e+02 8.083509999999999707e+01 1.167650000000000006e+02 1.341419999999999959e+02 8.082819999999999538e+01 1.156760000000000019e+02 1.343220000000000027e+02
4.734629999999999939e+01 2.406400000000000006e+01 7.427689999999999770e+01 4.740079999999999671e+01 2.464529999999999887e+01 7.530509999999999593e+01 4.852779999999999916e+01 2.537500000000000000e+01 7.422090000000000032e+01 4.624099999999999966e+01 2.426559999999999917e+01 7.415890000000000271e+01
7.312590000000000146e+01 4.400410000000000110e+01 1.172360000000000042e+02 7.299920000000000186e+01 4.443280000000000030e+01 1.160439999999999969e+02 7.358039999999999736e+01 4.683559999999999945e+01 1.165690000000000026e+02 7.189790000000000703e+01 4.632280000000000086e+01 1.167789999999999964e+02
1.326650000000000063e+01 1.164749999999999943e+02 1.400310000000000059e+02 1.309919999999999973e+01 1.169129999999999967e+02 1.388979999999999961e+02 1.208820000000000050e+01 1.160919999999999987e+02 1.406871639999999957e+02 1.513930000000000042e+01 1.161919999999999931e+02 1.388950000000000102e+02
3.071020000000000039e+01 3.576370000000000005e+01 -2.630000000000000115e-01 2.959149999999999991e+01 3.683089999999999975e+01 -2.190000000000000002e-01 3.146580000000000155e+01 3.556479999999999819e+01 5.743770000000000264e-01 3.280610000000000070e+01 3.504410000000000025e+01 5.683999999999999816e-03
9.265720000000000312e+01 1.762310000000000088e+01 1.335340000000000060e+01 9.338540000000000418e+01 1.663410000000000011e+01 1.359459999999999980e+01 9.271519999999999584e+01 1.734329999999999927e+01 1.222669999999999924e+01 9.356159999999999854e+01 1.771999999999999886e+01 1.434370000000000012e+01
5.958180000000000121e+01 8.530029999999999291e+01 8.642719999999999914e+01 5.946589999999999776e+01 8.550570000000000448e+01 8.787820000000000675e+01 5.935779999999999745e+01 8.656950000000000500e+01 8.645390000000000441e+01 5.723380000000000223e+01 8.481430000000000291e+01 8.682949999999999591e+01
1.172450000000000045e+02 8.440120000000000289e+01 6.447050000000000125e+01 1.169669999999999987e+02 8.509590000000000032e+01 6.333259999999999934e+01 1.159890000000000043e+02 8.214199999999999591e+01 6.197809999999999775e+01 1.151820000000000022e+02 8.239400000000000546e+01 6.277750000000000341e+01
1.791390000000000171e+01 1.104020000000000010e+02 1.365999999999999943e+02 1.829139999999999944e+01 1.096129999999999995e+02 1.374790000000000134e+02 1.910539999999999949e+01 1.102699999999999960e+02 1.357860000000000014e+02 1.832789999999999964e+01 1.119000000000000057e+02 1.376990000000000123e+02
3.164079999999999870e+01 1.298950000000000102e+02 1.083769999999999953e+02 3.291270000000000095e+01 1.306870000000000118e+02 1.087379999999999995e+02 3.334519999999999840e+01 1.307649999999999864e+02 1.102579999999999956e+02 3.328059999999999974e+01 1.294519999999999982e+02 1.101869999999999976e+02
4.732169999999999987e+01 1.211700000000000017e+02 4.878719999999999857e+01 4.798080000000000211e+01 1.209120000000000061e+02 4.968919999999999959e+01 4.930199999999999960e+01 1.211149999999999949e+02 4.770000000000000284e+01 5.041720000000000113e+01 1.215840000000000032e+02 4.791380000000000194e+01
4.097399999999999665e+01 3.496690000000000254e+01 2.880379999999999896e+01 4.007650000000000290e+01 3.436599999999999966e+01 2.963879999999999981e+01 4.083100000000000307e+01 3.292940000000000111e+01 2.948140000000000072e+01 4.120000000000000284e+01 3.570739999999999981e+01 2.978419999999999845e+01
1.089360000000000070e+02 3.784769999999999968e+00 3.753509999999999902e+00 1.097469999999999999e+02 3.392479999999999940e+00 5.036550000000000082e+00 1.091440000000000055e+02 2.366779999999999884e+00 4.554229999999999556e+00 1.079180000000000064e+02 4.173700000000000188e+00 4.080510000000000304e+00
1.176530000000000058e+02 8.835540000000000305e+01 9.017069999999999652e+01 1.176860000000000070e+02 8.875690000000000168e+01 9.124479999999999791e+01 1.145930000000000035e+02 8.918750000000000000e+01 8.956399999999999295e+01 1.151899999999999977e+02 8.843649999999999523e+01 8.909149999999999636e+01
7.614939999999999998e+01 1.016089999999999947e+02 1.061809999999999974e+02 7.527419999999999334e+01 1.010030000000000001e+02 1.063119999999999976e+02 8.065380000000000393e+01 1.015240000000000009e+02 1.067109999999999985e+02 8.063460000000000605e+01 1.025759999999999934e+02 1.063359999999999985e+02
1.513909999999999911e+01 6.741939999999999600e+01 6.059510000000000218e+01 1.338499999999999979e+01 6.761719999999999686e+01 6.116640000000000299e+01 1.335720000000000063e+01 6.701550000000000296e+01 6.019050000000000011e+01 1.489230000000000054e+01 6.734329999999999927e+01 6.198799999999999955e+01
7.200669999999999504e+01 1.184900000000000020e+01 1.397150000000000070e+01 7.273890000000000100e+01 1.092229999999999990e+01 1.398949999999999960e+01 7.187050000000000693e+01 9.408260000000000289e+00 1.455369999999999919e+01 7.135970000000000368e+01 1.107760000000000034e+01 1.562609999999999921e+01
9.796810000000000684e+00 1.121560000000000059e+02 4.583290000000000219e+01 1.059689999999999976e+01 1.102450000000000045e+02 4.513499999999999801e+01 1.175169999999999959e+01 1.115319999999999965e+02 4.556029999999999802e+01 1.193329999999999913e+01 1.106080000000000041e+02 4.443919999999999959e+01
