-5.950452338543106634e+03
-5.960605452992852406e+03
-5.947099016693768135e+03
-5.949268642152950633e+03
-5.946026836265195925e+03
-5.947533279751021837e+03
-5.948270214322782522e+03
-5.945810378231985851e+03
-5.957479777056545572e+03
-5.945708143638867114e+03
-5.950160166378715076e+03
-5.958926967449495351e+03
-5.949165683818592697e+03
-5.952157409311500487e+03
-5.960294900217335453e+03
-5.960506289286306128e+03
-5.951526471579120880e+03
-5.947086000263214373e+03
-5.945960657303082371e+03
