6.252931581229964841e+00 -4.652589886650599027e+00 -4.546022588324391656e+00 -1.069297596243315773e+01 -4.874913812449304107e-01 9.534779510271264025e-01 -9.850593279883867126e+00 7.310414520383020864e+00 1.902144133512222668e+00 1.429063760966499075e+01 -2.170333201065424600e+00 1.690400555207109079e+00
-1.831100227840010697e-01 -1.688278006527889064e-01 2.050208114694611061e-01 1.823154489973568826e-01 1.688519176024353141e-01 -2.041391287005120403e-01 3.053853743284045894e-03 2.628807161055531916e-01 -4.505987217781753235e-02 -2.259331378707333561e-03 -2.629047816331320786e-01 4.417818940886844570e-02
9.674133518820376310e+00 -6.995694241035301353e+00 -8.891106917382467500e+00 4.271729927050019526e+00 7.623642377066375708e+00 8.828930438714143847e+00 -2.494103301490369962e+00 -1.838795077439235426e+00 2.392311621992756265e+00 -1.145176019580209292e+01 1.210846941408161959e+00 -2.330135143324431279e+00
-1.272753968442910777e+00 4.130764556594467507e+00 -1.299801518279057788e+01 1.507092094664717274e+00 -5.891552923314859136e+00 1.278717457599034724e+01 -1.205959973234654825e+01 -2.773068840302518101e+00 1.617924699221883866e+00 1.182526160612474264e+01 4.533857207022909286e+00 -1.407084040999587060e+00
-7.790958111825022847e+00 -1.936783118027693096e+00 1.668906336690274994e+00 5.153261875075195952e+00 -5.651078498936967787e-01 -7.194105619905828419e-01 6.087473365814764392e+00 1.271031432026588748e+00 -1.223419276951651424e+00 -3.449777129064937942e+00 1.230859535894800905e+00 2.739235022519592166e-01
-1.387517728352161761e+01 9.314914279206870873e+00 -4.349233010039999847e+00 5.481720588190565735e+00 -5.931739783268282551e+00 -1.346561758819908139e+00 1.224474884579425726e+01 -4.954883663438192087e+00 2.972660766998166171e+00 -3.851292150463205832e+00 1.571709167499603321e+00 2.723134001861742259e+00
-9.267517788282928493e+00 9.360830997295046529e+00 3.220982713093619054e+00 6.944244765597010982e+00 -1.071347670660634854e+01 4.128864768311554911e+00 -1.588223518735827899e-01 5.538362355470210358e-03 -9.395677367008648417e+00 2.482095374559500911e+00 1.347107346955832119e+00 2.045829885603474452e+00
-5.100794499811210914e-01 2.945902779966184770e+00 1.308445768367891393e+00 -2.017575207875527354e+00 9.739904708537701072e-01 -4.523585237667973047e+00 3.581206585639409301e-01 -4.757634680402968108e+00 2.344431197991794669e+00 2.169534050714775120e+00 8.377413781609448495e-01 8.707082713082873182e-01
-3.359000467797293332e+00 8.477980844570113916e+00 -1.382339659854670977e+01 3.401092721038983857e+00 -8.411815967504189473e+00 1.386076136401496584e+01 -5.109283614664675177e+00 1.560919840723788088e+00 5.032979488599973017e+00 5.067191361422984208e+00 -1.627084717789711421e+00 -5.070344254068227308e+00
1.736991930820574126e+00 1.184962101081929120e+00 -1.083139311233491942e+00 1.206540857477694351e+00 1.387006500441725354e+00 -1.324934871368985023e+00 -2.905130993995218347e+00 -1.090351976105991272e-01 3.712616090451700490e+00 -3.840184572511779609e-02 -2.462933403913055042e+00 -1.304541856427156032e+00
7.906526945907097037e+00 5.819838319616553513e+00 2.076433626217875084e+00 -8.805029616017350236e+00 -5.197438624666175677e+00 -4.738653458323700995e+00 -7.266704837430929542e-01 -1.074511593339351911e+01 8.882840254392906365e-01 1.625173205275414423e+00 1.012271623844314128e+01 1.773935806666535608e+00
2.106043069735552997e+00 -1.231333235980393015e+00 5.224093716141136490e+00 -3.920884359748494141e+00 1.191984864259238330e+00 -3.628630741635653578e+00 1.283674082105145331e+01 4.631574304737834602e+00 4.806343513910972809e-01 -1.102189953103851217e+01 -4.592225984438746522e+00 -2.076097325896579804e+00
3.685421170112372913e+00 5.791006789135656696e+00 -4.687984826980038933e-01 5.717383141182291739e-02 -7.938114956315061477e+00 2.057750395019633860e+00 -3.098959175413647404e+00 4.895647652854365539e+00 1.293205038898920245e+00 -6.436358775326159742e-01 -2.748539537097028695e+00 -2.882156899798482996e+00
-8.980045959646779652e-01 7.435843175949208295e+00 -9.249467871267727404e+00 -2.184515870074002386e+00 -1.203056750153629295e+01 3.828830580013006801e-02 7.402696614098103645e+00 2.539953993643905950e+00 9.019523863555907184e+00 -4.320176148059423404e+00 2.054770331943178263e+00 1.916557019116892358e-01
4.506352314460835284e-01 1.943498274397359227e+00 5.336947927859067242e+00 -1.282217480052983971e-01 -1.958008861930233602e+00 -5.194736035065822044e+00 -3.602809870361361355e+00 4.494131294482343719e+00 2.798882255377026507e+00 3.280396386920576113e+00 -4.479620706949469344e+00 -2.941094148170271705e+00
4.706775993097911837e+00 3.255093284443703272e+00 -7.030914089224984398e-01 -4.705151878518739395e+00 -3.255696516717268008e+00 7.034878730627409649e-01 -3.191186658893069988e-02 1.618310210461753496e+00 -5.771267811470059961e-01 3.028775200975842088e-02 -1.617706978188189204e+00 5.767303684288309640e-01
1.517270064480306324e+00 4.467425295160580845e-01 1.234295702425358066e+01 -4.683577544420777450e+00 1.497606060189089483e+00 -2.290747587987859823e+00 -3.111059970598379021e+00 -1.302523386012507833e+00 -5.391070013832371943e-01 6.277367399116782209e+00 -6.418251522705721301e-01 -9.513102383460415368e+00
1.136769905085858623e+00 -1.478829395094243937e+00 1.617192911779627984e+00 -2.824302085947071106e+00 3.157170447036805050e-01 5.434572054475994562e-01 -1.319054192310324669e-01 4.027414222809579059e+00 2.127673762419469483e+00 1.819437600092244978e+00 -2.864301872419015460e+00 -4.288323828224629430e+00
3.604752338960279801e+00 -3.113748984772918504e+00 -1.762418034882850870e+00 4.010662044511276392e+00 3.459297976280247156e+00 -1.182299209317667410e+00 -1.620877508602576844e+00 -3.286296143566269645e+00 -3.590762554126805117e+00 -5.994536874868979126e+00 2.940747152058940994e+00 6.535479746905256349e+00
