LAMMPS (16 Mar 2018)
clear
units 	metal
dimension	3
boundary	p	p    p
atom_style	atomic
box         tilt large
read_data   conf.lmp
  triclinic box = (0 0 0) to (2.5701 2.22577 2.08796) with tilt (1.28505 1.0752 0.741924)
  1 by 1 by 1 MPI processor grid
  reading atoms ...
  1 atoms
mass            1 1
neigh_modify    every 1 delay 0 check no
pair_style deepmd frozen_model.pb
pair_coeff
compute         mype all pe
thermo          100
thermo_style    custom step pe pxx pyy pzz pxy pxz pyz lx ly lz vol c_mype
dump            1 all custom 100 dump.relax id type xs ys zs fx fy fz
min_style       cg
minimize        1.000000e-12 1.000000e-06 5000 500000
WARNING: Using 'neigh_modify every 1 delay 0 check yes' setting during minimization (../min.cpp:168)
Neighbor list info ...
  update every 1 steps, delay 0 steps, check yes
  max neighbors/atom: 2000, page size: 100000
  master list distance cutoff = 10
  ghost atom cutoff = 10
  binsize = 5, bins = 1 1 1
  1 neighbor lists, perpetual/occasional/extra = 1 0 0
  (1) pair deepmd, perpetual
      attributes: , newton on
      pair build: full/bin/atomonly
      stencil: full/bin/3d
      bin: standard
Per MPI rank memory allocation (min/avg/max) = 5.176 | 5.176 | 5.176 Mbytes
Step PotEng Pxx Pyy Pzz Pxy Pxz Pyz Lx Ly Lz Volume c_mype 
       0   -3.7103936    2410.3691    5632.0764     32207.43    23884.177    43858.846    11311.781       2.5701     2.225772     2.087959    11.944079   -3.7103936 
       1   -3.7103936    2410.3691    5632.0764     32207.43    23884.177    43858.846    11311.781       2.5701     2.225772     2.087959    11.944079   -3.7103936 
Loop time of 0.0206747 on 1 procs for 1 steps with 1 atoms

241.9% CPU use with 1 MPI tasks x no OpenMP threads

Minimization stats:
  Stopping criterion = quadratic factors are zero
  Energy initial, next-to-last, final = 
        -3.71039361061     -3.71039361061     -3.71039361061
  Force two-norm initial, final = 1.20185e-17 1.69967e-17
  Force max component initial, final = 6.93889e-18 1.38778e-17
  Final line search alpha, max atom move = 1 1.38778e-17
  Iterations, force evaluations = 1 2

MPI task timing breakdown:
Section |  min time  |  avg time  |  max time  |%varavg| %total
---------------------------------------------------------------
Pair    | 0.020492   | 0.020492   | 0.020492   |   0.0 | 99.12
Neigh   | 0          | 0          | 0          |   0.0 |  0.00
Comm    | 5.3644e-05 | 5.3644e-05 | 5.3644e-05 |   0.0 |  0.26
Output  | 0          | 0          | 0          |   0.0 |  0.00
Modify  | 0          | 0          | 0          |   0.0 |  0.00
Other   |            | 0.0001292  |            |       |  0.63

Nlocal:    1 ave 1 max 1 min
Histogram: 1 0 0 0 0 0 0 0 0 0
Nghost:    999 ave 999 max 999 min
Histogram: 1 0 0 0 0 0 0 0 0 0
Neighs:    0 ave 0 max 0 min
Histogram: 1 0 0 0 0 0 0 0 0 0

Total # of neighbors = 0
Ave neighs/atom = 0
Neighbor list builds = 0
Dangerous builds not checked
variable        N equal count(all)
variable        V equal vol
variable        E equal "c_mype"
variable        Pxx equal pxx
variable        Pyy equal pyy
variable        Pzz equal pzz
variable        Pxy equal pxy
variable        Pxz equal pxz
variable        Pyz equal pyz
variable        Epa equal ${E}/${N}
variable        Epa equal -3.71039361060779/${N}
variable        Epa equal -3.71039361060779/1
variable        Vpa equal ${V}/${N}
variable        Vpa equal 11.9440788779923/${N}
variable        Vpa equal 11.9440788779923/1
print "All done"
All done
print "Total number of atoms = ${N}"
Total number of atoms = 1
print "Final energy per atoms = ${Epa}"
Final energy per atoms = -3.71039361060779
print "Final volume per atoms = ${Vpa}"
Final volume per atoms = 11.9440788779923
print "Final Stress (xx yy zz xy xz yz) = ${Pxx} ${Pyy} ${Pzz} ${Pxy} ${Pxz} ${Pyz}"
Final Stress (xx yy zz xy xz yz) = 2410.36909758881 5632.07640453393 32207.4300860293 23884.1766033176 43858.8457983911 11311.7811870521
Total wall time: 0:00:02
