8.273572899999999564e+00 0.000000000000000000e+00 0.000000000000000000e+00 9.390210000000000223e-02 8.465964299999999554e+00 0.000000000000000000e+00 1.992735999999999952e-01 2.217493000000000103e-01 8.295526499999999359e+00
9.525802600000000453e+00 0.000000000000000000e+00 0.000000000000000000e+00 1.081145000000000023e-01 9.747313500000000630e+00 0.000000000000000000e+00 2.294343000000000077e-01 2.553116999999999748e-01 9.551080699999999979e+00
9.474328999999999112e+00 0.000000000000000000e+00 0.000000000000000000e+00 1.083883000000000069e-01 9.615000699999999512e+00 0.000000000000000000e+00 2.407191999999999943e-01 -2.213783000000000001e-01 9.325584400000000329e+00
6.556320200000000042e+00 0.000000000000000000e+00 0.000000000000000000e+00 7.441190000000000304e-02 6.708779400000000059e+00 0.000000000000000000e+00 1.579125999999999863e-01 1.757231999999999961e-01 6.573717099999999647e+00
6.285852000000000217e+00 0.000000000000000000e+00 0.000000000000000000e+00 7.191150000000000320e-02 6.379183799999999849e+00 0.000000000000000000e+00 1.597079000000000137e-01 -1.468760000000000066e-01 6.187166200000000060e+00
7.293555699999999753e+00 0.000000000000000000e+00 0.000000000000000000e+00 8.343979999999999453e-02 7.401848799999999784e+00 0.000000000000000000e+00 1.853111000000000064e-01 -1.704220999999999930e-01 7.179048500000000388e+00
8.349835399999999908e+00 0.000000000000000000e+00 0.000000000000000000e+00 9.552389999999999493e-02 8.473813099999999210e+00 0.000000000000000000e+00 2.121485999999999927e-01 -1.951033000000000073e-01 8.218746200000000002e+00
6.309796300000000357e+00 0.000000000000000000e+00 0.000000000000000000e+00 7.218539999999999679e-02 6.403482900000000200e+00 0.000000000000000000e+00 1.603162999999999949e-01 -1.474354999999999971e-01 6.210734399999999766e+00
6.353738299999999839e+00 0.000000000000000000e+00 0.000000000000000000e+00 5.854380000000000001e-02 6.286595400000000389e+00 0.000000000000000000e+00 1.501757999999999982e-01 1.249200000000000007e-03 6.344924500000000300e+00
1.029136180000000067e+01 0.000000000000000000e+00 0.000000000000000000e+00 -7.641399999999999582e-02 1.009068680000000029e+01 0.000000000000000000e+00 -1.956623000000000112e-01 -2.709808000000000217e-01 9.921673800000000654e+00
1.074333769999999966e+01 0.000000000000000000e+00 0.000000000000000000e+00 1.219331000000000026e-01 1.099316119999999941e+01 0.000000000000000000e+00 2.587593000000000254e-01 2.879441999999999835e-01 1.077184680000000050e+01
1.358544159999999934e+01 0.000000000000000000e+00 0.000000000000000000e+00 1.541899999999999937e-01 1.390135480000000001e+01 0.000000000000000000e+00 3.272129999999999761e-01 3.641186000000000145e-01 1.362149239999999928e+01
9.623184200000000743e+00 0.000000000000000000e+00 0.000000000000000000e+00 1.092198000000000058e-01 9.846960199999999830e+00 0.000000000000000000e+00 2.317798000000000080e-01 2.579216999999999760e-01 9.648719800000000291e+00
9.453175599999999790e+00 0.000000000000000000e+00 0.000000000000000000e+00 1.081463000000000008e-01 9.593533499999999492e+00 0.000000000000000000e+00 2.401816999999999980e-01 -2.208839999999999970e-01 9.304761900000000807e+00
1.969439320000000038e+01 0.000000000000000000e+00 0.000000000000000000e+00 -1.462321000000000037e-01 1.931036380000000108e+01 0.000000000000000000e+00 -3.744354999999999767e-01 -5.185710999999999515e-01 1.898692700000000144e+01
7.441881200000000085e+00 0.000000000000000000e+00 0.000000000000000000e+00 8.446270000000000167e-02 7.614932099999999870e+00 0.000000000000000000e+00 1.792419000000000096e-01 1.994580999999999993e-01 7.461628000000000149e+00
8.161034600000000694e+00 0.000000000000000000e+00 0.000000000000000000e+00 9.262489999999999613e-02 8.350810100000000347e+00 0.000000000000000000e+00 1.965630999999999906e-01 2.187330000000000108e-01 8.182691600000000065e+00
1.027545360000000052e+01 0.000000000000000000e+00 0.000000000000000000e+00 1.166227999999999987e-01 1.051439569999999968e+01 0.000000000000000000e+00 2.474899999999999878e-01 2.754038999999999793e-01 1.030271909999999913e+01
7.084223299999999668e+00 0.000000000000000000e+00 0.000000000000000000e+00 8.040339999999999987e-02 7.248959100000000433e+00 0.000000000000000000e+00 1.706274999999999875e-01 1.898721999999999910e-01 7.103021599999999935e+00
9.527477299999999261e+00 0.000000000000000000e+00 0.000000000000000000e+00 1.089963999999999933e-01 9.668938699999999997e+00 0.000000000000000000e+00 2.420694999999999930e-01 -2.226201999999999903e-01 9.377897300000000769e+00
7.252702700000000391e+00 0.000000000000000000e+00 0.000000000000000000e+00 8.231560000000000266e-02 7.421356699999999584e+00 0.000000000000000000e+00 1.746853999999999907e-01 1.943877999999999995e-01 7.271949300000000171e+00
6.656273900000000410e+00 0.000000000000000000e+00 0.000000000000000000e+00 6.133140000000000119e-02 6.585933700000000002e+00 0.000000000000000000e+00 1.573265000000000080e-01 1.308700000000000098e-03 6.647039399999999709e+00
7.718493999999999744e+00 0.000000000000000000e+00 0.000000000000000000e+00 8.760220000000000506e-02 7.897978400000000399e+00 0.000000000000000000e+00 1.859041999999999917e-01 2.068720000000000003e-01 7.738975499999999563e+00
1.000925349999999980e+01 0.000000000000000000e+00 0.000000000000000000e+00 -2.666339999999999821e-01 9.913079400000000874e+00 0.000000000000000000e+00 -2.947972999999999844e-01 2.930736999999999925e-01 1.023508260000000014e+01
9.956194999999999240e+00 0.000000000000000000e+00 0.000000000000000000e+00 -2.652205999999999730e-01 9.860530999999999935e+00 0.000000000000000000e+00 -2.932346000000000119e-01 2.915201000000000042e-01 1.018082620000000027e+01
1.171298409999999990e+01 0.000000000000000000e+00 0.000000000000000000e+00 1.329382000000000064e-01 1.198535640000000058e+01 0.000000000000000000e+00 2.821138000000000257e-01 3.139328000000000118e-01 1.174406630000000007e+01
6.394021500000000024e+00 0.000000000000000000e+00 0.000000000000000000e+00 -4.747599999999999737e-02 6.269342400000000204e+00 0.000000000000000000e+00 -1.215650000000000064e-01 -1.683603999999999934e-01 6.164334799999999781e+00
9.383474400000000770e+00 0.000000000000000000e+00 0.000000000000000000e+00 1.064990999999999993e-01 9.601675099999999574e+00 0.000000000000000000e+00 2.260061999999999904e-01 2.514970000000000261e-01 9.408372899999999817e+00
