4.598300000000000054e+00 5.154490000000000016e+00 3.413279999999999870e+00 3.812250000000000139e+00 3.539769999999999861e+00 2.872669999999999835e+00 3.594339999999999868e+00 4.113050000000000317e+00 4.555819999999999759e+00 5.165350000000000108e+00 3.482790000000000052e+00 3.969090000000000007e+00 4.294999999999999929e+00 4.049059999999999881e+00 3.693179999999999907e+00
5.307039999999999758e+00 5.013519999999999754e+00 5.171730000000000160e+00 5.754719999999999835e+00 4.191180000000000128e+00 3.674640000000000128e+00 4.495700000000000252e+00 5.561899999999999622e+00 3.639159999999999950e+00 4.194659999999999833e+00 3.878530000000000033e+00 4.467489999999999739e+00 4.946469999999999700e+00 4.671109999999999651e+00 4.260460000000000136e+00
3.836770000000000014e+00 4.455849999999999866e+00 4.093219999999999636e+00 5.334939999999999571e+00 4.859200000000000408e+00 3.218080000000000052e+00 5.167500000000000426e+00 3.386219999999999786e+00 4.248599999999999710e+00 5.275360000000000049e+00 4.969640000000000057e+00 5.007520000000000415e+00 4.933970000000000411e+00 4.385410000000000252e+00 4.154889999999999972e+00
4.352769999999999584e+00 3.338119999999999976e+00 3.501889999999999947e+00 3.624670000000000059e+00 2.632159999999999833e+00 2.022609999999999797e+00 3.046380000000000088e+00 4.222380000000000244e+00 2.674990000000000201e+00 2.661630000000000162e+00 2.728800000000000114e+00 3.466720000000000024e+00 3.396949999999999914e+00 3.207599999999999785e+00 2.932519999999999794e+00
3.383570000000000189e+00 3.308809999999999807e+00 1.730429999999999913e+00 4.039060000000000095e+00 3.327859999999999818e+00 3.424370000000000136e+00 3.386929999999999996e+00 1.873050000000000104e+00 2.761820000000000164e+00 2.241789999999999949e+00 3.188279999999999781e+00 3.159359999999999946e+00 3.270340000000000025e+00 2.911709999999999798e+00 2.749600000000000044e+00
3.777239999999999931e+00 3.331710000000000171e+00 2.073949999999999960e+00 3.438800000000000079e+00 4.397260000000000169e+00 3.460729999999999862e+00 4.865520000000000067e+00 3.272139999999999826e+00 3.550959999999999894e+00 3.231829999999999981e+00 2.621630000000000127e+00 3.662399999999999878e+00 3.780470000000000219e+00 3.374390000000000001e+00 3.199019999999999975e+00
3.842659999999999965e+00 4.826719999999999899e+00 4.113050000000000317e+00 3.959900000000000198e+00 3.611229999999999940e+00 2.700239999999999974e+00 4.253510000000000346e+00 3.003429999999999822e+00 4.329170000000000407e+00 5.434580000000000410e+00 4.054039999999999644e+00 3.578990000000000116e+00 4.331349999999999589e+00 3.871430000000000149e+00 3.651720000000000077e+00
3.389470000000000205e+00 3.289919999999999956e+00 1.726580000000000004e+00 3.889759999999999884e+00 3.460449999999999804e+00 3.522370000000000001e+00 3.531699999999999839e+00 1.911699999999999955e+00 2.766259999999999941e+00 2.182519999999999794e+00 3.074120000000000186e+00 3.031400000000000095e+00 3.291760000000000019e+00 2.923329999999999984e+00 2.766030000000000211e+00
3.611839999999999939e+00 3.840959999999999930e+00 3.252429999999999932e+00 3.625420000000000087e+00 2.937269999999999825e+00 1.797430000000000083e+00 2.198209999999999997e+00 2.865899999999999892e+00 2.863789999999999836e+00 3.778649999999999842e+00 2.156429999999999847e+00 3.435200000000000031e+00 3.289909999999999890e+00 2.930130000000000123e+00 2.818220000000000169e+00
5.677200000000000024e+00 4.026519999999999655e+00 3.795249999999999790e+00 4.144540000000000113e+00 4.016740000000000421e+00 4.597640000000000171e+00 4.813690000000000246e+00 5.568509999999999849e+00 3.906379999999999963e+00 5.627110000000000056e+00 4.697519999999999918e+00 5.356709999999999638e+00 5.052299999999999791e+00 4.598770000000000024e+00 4.420720000000000205e+00
6.396469999999999878e+00 5.983019999999999783e+00 4.908280000000000420e+00 5.985149999999999970e+00 4.173230000000000217e+00 4.717130000000000045e+00 5.038429999999999964e+00 5.520789999999999864e+00 3.887290000000000134e+00 4.888630000000000031e+00 5.332569999999999588e+00 5.603500000000000369e+00 5.576039999999999885e+00 5.269700000000000273e+00 4.805310000000000414e+00
7.725439999999999863e+00 7.428840000000000110e+00 6.529080000000000439e+00 7.384330000000000283e+00 5.585519999999999818e+00 6.294640000000000235e+00 6.964039999999999786e+00 6.791619999999999990e+00 4.939510000000000289e+00 6.103970000000000340e+00 6.789640000000000342e+00 6.462519999999999598e+00 7.053860000000000241e+00 6.661450000000000315e+00 6.072169999999999845e+00
6.039089999999999847e+00 4.692450000000000010e+00 4.720060000000000144e+00 4.949069999999999858e+00 4.184859999999999580e+00 3.329629999999999868e+00 4.725810000000000066e+00 5.705280000000000129e+00 4.157390000000000363e+00 4.306639999999999802e+00 4.206550000000000011e+00 5.018189999999999706e+00 4.991480000000000139e+00 4.722749999999999559e+00 4.295770000000000088e+00
3.858519999999999950e+00 4.370210000000000150e+00 3.977100000000000080e+00 5.381829999999999892e+00 4.833090000000000330e+00 3.271739999999999871e+00 5.294389999999999930e+00 3.334519999999999929e+00 4.179960000000000342e+00 5.140320000000000000e+00 4.927640000000000242e+00 5.003580000000000361e+00 4.914259999999999629e+00 4.389459999999999695e+00 4.153789999999999871e+00
9.069240000000000634e+00 9.528570000000000206e+00 7.971930000000000405e+00 1.021165000000000056e+01 9.237600000000000477e+00 9.338559999999999306e+00 1.035158999999999985e+01 8.522289999999999921e+00 7.664860000000000007e+00 9.041629999999999612e+00 7.953369999999999607e+00 8.857269999999999754e+00 9.676989999999999981e+00 8.783599999999999852e+00 8.456139999999999546e+00
4.438019999999999854e+00 4.459990000000000343e+00 3.922379999999999978e+00 4.476609999999999978e+00 2.769210000000000171e+00 3.223640000000000061e+00 3.574030000000000040e+00 4.048399999999999999e+00 2.369969999999999910e+00 2.960490000000000066e+00 3.338189999999999991e+00 3.830989999999999895e+00 3.862839999999999829e+00 3.645099999999999785e+00 3.319850000000000190e+00
4.710560000000000080e+00 4.892059999999999853e+00 3.481320000000000192e+00 4.161389999999999922e+00 3.413980000000000015e+00 2.717589999999999950e+00 3.222160000000000135e+00 4.219669999999999810e+00 4.040619999999999656e+00 4.794190000000000396e+00 3.394050000000000011e+00 4.343569999999999709e+00 4.240610000000000213e+00 4.006389999999999674e+00 3.645150000000000112e+00
5.902239999999999931e+00 5.858290000000000219e+00 5.104910000000000281e+00 5.680990000000000428e+00 4.089039999999999786e+00 4.863979999999999748e+00 5.453630000000000422e+00 5.188170000000000393e+00 3.486040000000000028e+00 4.257819999999999716e+00 5.108439999999999870e+00 4.814490000000000158e+00 5.336730000000000196e+00 5.027759999999999785e+00 4.597220000000000084e+00
4.759260000000000268e+00 3.160120000000000040e+00 3.092530000000000001e+00 3.148660000000000014e+00 3.096490000000000187e+00 2.341660000000000075e+00 3.567330000000000112e+00 4.557669999999999888e+00 3.119709999999999983e+00 3.201270000000000060e+00 3.053549999999999986e+00 4.151790000000000092e+00 3.679699999999999971e+00 3.473710000000000075e+00 3.160289999999999822e+00
4.482050000000000090e+00 5.326369999999999827e+00 4.578170000000000073e+00 4.517280000000000406e+00 4.222369999999999735e+00 3.161169999999999813e+00 4.783839999999999648e+00 3.583040000000000003e+00 4.845080000000000275e+00 6.105380000000000251e+00 4.641750000000000043e+00 4.060679999999999623e+00 4.947980000000000267e+00 4.409720000000000084e+00 4.179459999999999731e+00
4.765579999999999927e+00 3.168159999999999865e+00 2.899469999999999992e+00 3.040750000000000064e+00 3.225130000000000052e+00 2.542889999999999873e+00 3.859490000000000087e+00 4.639820000000000277e+00 3.287570000000000103e+00 3.451410000000000089e+00 3.179370000000000029e+00 4.301960000000000228e+00 3.759570000000000078e+00 3.555089999999999861e+00 3.233439999999999870e+00
4.059829999999999828e+00 3.925730000000000164e+00 2.891789999999999861e+00 3.355859999999999843e+00 2.579489999999999839e+00 2.011340000000000128e+00 2.472170000000000201e+00 3.373670000000000169e+00 3.311179999999999790e+00 3.848780000000000090e+00 2.297579999999999956e+00 3.622339999999999893e+00 3.455449999999999910e+00 3.085139999999999993e+00 2.956780000000000186e+00
4.467480000000000118e+00 3.173760000000000137e+00 2.633340000000000014e+00 2.894960000000000200e+00 3.856430000000000025e+00 3.281960000000000210e+00 4.415949999999999598e+00 4.784500000000000419e+00 3.414280000000000204e+00 4.191370000000000040e+00 3.338270000000000071e+00 4.366760000000000197e+00 4.010889999999999844e+00 3.781099999999999905e+00 3.455490000000000173e+00
5.823479999999999990e+00 4.522920000000000051e+00 4.564720000000000333e+00 4.153080000000000105e+00 4.103939999999999699e+00 5.146609999999999907e+00 4.395979999999999777e+00 4.695210000000000328e+00 3.468199999999999950e+00 4.606930000000000192e+00 5.799339999999999939e+00 4.892789999999999750e+00 4.793140000000000178e+00 4.757109999999999950e+00 4.567050000000000054e+00
5.182949999999999946e+00 3.723970000000000002e+00 4.488949999999999996e+00 3.930499999999999883e+00 4.852870000000000239e+00 5.238719999999999821e+00 4.350769999999999804e+00 4.957519999999999705e+00 3.587769999999999904e+00 5.543689999999999785e+00 5.482300000000000395e+00 4.734740000000000393e+00 4.756980000000000430e+00 4.732160000000000366e+00 4.536699999999999733e+00
6.095240000000000435e+00 6.483369999999999855e+00 4.428580000000000183e+00 5.526349999999999874e+00 4.759570000000000078e+00 4.899119999999999919e+00 5.551619999999999777e+00 6.141530000000000378e+00 6.109460000000000335e+00 7.186219999999999608e+00 5.534830000000000361e+00 5.430990000000000428e+00 6.076190000000000424e+00 5.744200000000000195e+00 5.236799999999999677e+00
4.065959999999999575e+00 2.825909999999999922e+00 2.165820000000000078e+00 2.940430000000000099e+00 1.846070000000000100e+00 3.116019999999999790e+00 2.395500000000000185e+00 3.164680000000000160e+00 1.994629999999999903e+00 3.200559999999999850e+00 3.544039999999999857e+00 3.649249999999999883e+00 3.137880000000000003e+00 2.856790000000000163e+00 2.750259999999999927e+00
4.241740000000000066e+00 5.043330000000000091e+00 5.030700000000000394e+00 5.927970000000000184e+00 4.546929999999999694e+00 4.482109999999999594e+00 4.780999999999999694e+00 5.146770000000000067e+00 3.319069999999999965e+00 4.557540000000000369e+00 3.566640000000000033e+00 4.037349999999999994e+00 4.868290000000000006e+00 4.606559999999999988e+00 4.182680000000000398e+00
