-2.390796561999999881e+01
-2.386235994999999832e+01
-2.392004607000000149e+01
-2.389473947999999837e+01
-2.389988405000000071e+01
-2.389037210000000044e+01
-2.388567433000000051e+01
-2.385252277000000021e+01
-2.391908425000000094e+01
-2.394474925000000098e+01
-2.390814811999999989e+01
-2.386286364000000049e+01
-2.391001323999999784e+01
-2.391246136999999905e+01
-2.391935742999999803e+01
-2.391896954999999991e+01
-2.388814026000000013e+01
-2.392392929000000024e+01
-2.385473521000000119e+01
-2.389559939999999827e+01
-2.385706834000000143e+01
-2.390285846999999819e+01
-2.391225076999999999e+01
-2.389778923000000077e+01
-2.396487808999999913e+01
-2.387401187000000036e+01
-2.391174814999999754e+01
-2.388503074999999853e+01
