-5.082449999999999468e-01 -2.061379000000000072e+00 3.295850000000000168e-01 -3.183369999999999811e-01 -2.529100000000000098e-02 -5.338199999999999612e-01 3.122369999999999868e-01 -9.052200000000000524e-02 -3.612699999999999800e-01 6.889819999999999833e-01 -2.530689999999999884e-01 2.892910000000000204e-01 -1.746360000000000134e-01 2.430260999999999783e+00 2.762129999999999863e-01
8.620839999999999614e-01 8.585760000000000058e-01 1.863053000000000070e+00 -1.458430000000000004e-01 2.905579999999999830e-01 1.451109999999999900e-01 6.682519999999999571e-01 -1.650555999999999912e+00 1.105723999999999929e+00 4.889099999999999696e-02 4.886570000000000080e-01 -2.333689999999999931e-01 -1.433383999999999991e+00 1.276500000000000030e-02 -2.880519000000000052e+00
2.499600000000000086e-02 1.059859999999999969e-01 8.090700000000000669e-02 -1.084780000000000050e-01 -5.509739999999999638e-01 6.303879999999999484e-01 8.962970000000000104e-01 -2.380339999999999900e+00 1.280620000000000092e-01 1.145089999999999997e-01 4.557400000000000340e-02 2.566899999999999737e-01 -9.273240000000000371e-01 2.779752999999999918e+00 -1.096046999999999993e+00
-6.979819999999999913e-01 -2.561840000000000228e-01 -1.576670000000000016e-01 -7.257600000000000162e-02 1.699640000000000040e-01 1.807599999999999832e-02 3.879099999999999909e-02 -2.326360000000000094e-01 -1.422229999999999883e-01 -1.735244000000000009e+00 -1.290756999999999932e+00 1.584864999999999968e+00 2.467010999999999843e+00 1.609612999999999960e+00 -1.303050000000000042e+00
1.027499999999999941e-02 -3.157200000000000284e-02 1.839860000000000106e-01 -1.768669999999999964e-01 1.135449999999999932e-01 -2.394920000000000104e-01 6.345099999999999352e-02 -1.905650000000000066e+00 -1.250159999999999882e-01 1.142873000000000028e+00 -3.089210000000000012e-01 -4.998179999999999845e-01 -1.039732000000000101e+00 2.132598999999999911e+00 6.803399999999999448e-01
-8.663600000000000467e-02 -2.963109999999999911e-01 8.837760000000000060e-01 -1.547199999999999964e-02 -4.606879999999999864e-01 1.460130000000000039e-01 -1.176252000000000075e+00 1.720800000000000107e-01 -4.560009999999999897e-01 -1.331482999999999972e+00 -1.393834000000000017e+00 7.064049999999999496e-01 2.609843999999999831e+00 1.978752000000000066e+00 -1.280192999999999914e+00
6.321940000000000337e-01 -1.683411999999999908e+00 -8.301140000000000185e-01 -7.001190000000000468e-01 -1.455789999999999862e-01 -1.324778000000000011e+00 -3.340009999999999923e-01 2.524739999999999762e-01 6.204000000000000313e-03 -6.273170000000000135e-01 9.556499999999999717e-02 -1.104030000000000011e-01 1.029242999999999908e+00 1.480952000000000046e+00 2.259091999999999878e+00
3.148920000000000052e-01 1.981169999999999876e-01 4.536519999999999997e-01 -6.059000000000000150e-03 2.149900000000000075e-02 -4.757750000000000035e-01 3.902459999999999818e-01 -2.094002999999999837e+00 1.594089999999999951e-01 1.387475999999999932e+00 -3.605880000000000196e-01 -2.105039999999999967e-01 -2.086554000000000020e+00 2.234976000000000074e+00 7.321800000000000530e-02
1.906480000000000119e-01 1.366357000000000044e+00 5.321719999999999784e-01 2.354499999999999926e-01 -3.248659999999999881e-01 -6.668969999999999620e-01 2.351400000000000018e-02 -1.190019999999999967e-01 4.739499999999999963e-02 -2.628039999999999821e-01 -1.750029999999999919e-01 -4.331740000000000035e-01 -1.868080000000000018e-01 -7.474859999999999838e-01 5.205049999999999955e-01
8.866000000000000547e-01 -8.589099999999999513e-01 -1.222472999999999921e+00 -1.959249999999999881e-01 8.312400000000000344e-02 1.046740000000000032e-01 2.115599999999999981e-01 -6.217920000000000114e-01 6.479770000000000252e-01 -3.573100000000000165e-01 4.190300000000000136e-01 -3.389400000000000052e-02 -5.449249999999999927e-01 9.785469999999999446e-01 5.037169999999999703e-01
1.656239999999999934e-01 -3.052799999999999958e-02 1.973389999999999866e-01 -6.322109999999999674e-01 1.901294999999999957e+00 1.684150000000000091e-01 -4.895800000000000152e-02 -9.346599999999999353e-02 -2.334749999999999881e-01 -7.926109999999999545e-01 7.890700000000000491e-02 1.267989999999999950e+00 1.308156000000000097e+00 -1.856206999999999940e+00 -1.400268999999999986e+00
-1.809610000000000107e-01 -6.058999999999999941e-01 -4.103609999999999758e-01 -1.725859999999999894e-01 1.420576999999999979e+00 -2.430889999999999995e-01 3.590189999999999770e-01 -8.099599999999999855e-02 1.276732999999999896e+00 -2.228867000000000154e+00 2.759980000000000211e-01 9.766209999999999614e-01 2.223393999999999870e+00 -1.009678000000000075e+00 -1.599904999999999911e+00
-8.564969999999999528e-01 -9.262299999999999700e-02 -4.446309999999999985e-01 1.317899999999999905e-01 1.158069999999999933e-01 2.769860000000000100e-01 -8.404700000000000504e-01 2.566818000000000044e+00 -3.004479999999999928e-01 3.959230000000000249e-01 4.262079999999999758e-01 -4.516000000000000014e-01 1.169254000000000016e+00 -3.016210000000000058e+00 9.196919999999999540e-01
-9.406700000000000061e-01 -4.454500000000000126e-02 -3.260899999999999910e-02 1.236010000000000025e-01 2.899129999999999763e-01 -8.291400000000000159e-02 -2.698459999999999748e-01 6.625109999999999610e-01 3.104120000000000212e-01 6.285739999999999661e-01 1.160400000000000098e+00 2.081405999999999867e+00 4.583409999999999984e-01 -2.068278999999999979e+00 -2.276295999999999875e+00
-7.752790000000000514e-01 6.295490000000000252e-01 1.098849999999999966e-01 -2.768200000000000105e-01 -2.699719999999999898e-01 -8.446150000000000047e-01 7.891139999999999821e-01 -8.167870000000000408e-01 -2.332079999999999986e-01 4.879740000000000189e-01 3.725439999999999863e-01 -5.949039999999999884e-01 -2.249879999999999936e-01 8.466600000000000514e-02 1.562842999999999982e+00
-9.831229999999999691e-01 -1.306818000000000035e+00 -8.594929999999999515e-01 5.966879999999999962e-01 -5.101609999999999756e-01 -2.570810000000000040e-01 -2.584900000000000045e-02 2.728450000000000042e-01 -8.409259999999999513e-01 -4.266340000000000132e-01 6.587400000000000200e-02 4.829019999999999979e-01 8.389189999999999703e-01 1.478259999999999907e+00 1.474596999999999936e+00
1.621404000000000067e+00 2.757738999999999940e+00 -6.087860000000000493e-01 -9.345399999999999541e-02 2.689699999999999869e-01 4.371799999999999992e-02 4.162710000000000021e-01 -2.484949999999999937e-01 -1.469590000000000063e-01 2.326070000000000082e-01 -1.630759999999999987e-01 5.188850000000000406e-01 -2.176826999999999845e+00 -2.615137999999999963e+00 1.931420000000000081e-01
-4.582860000000000267e-01 -7.404349999999999543e-01 -2.252220000000000055e-01 8.959700000000000442e-01 -2.038877999999999968e+00 6.444170000000000176e-01 -2.035400000000000056e-02 -2.323939999999999895e-01 8.357320000000000304e-01 2.158309999999999951e-01 5.562299999999999883e-02 1.082810000000000022e-01 -6.331599999999999451e-01 2.956084000000000156e+00 -1.363207999999999975e+00
-8.701370000000000493e-01 3.439039999999999875e-01 1.362119999999999997e-01 -9.163529999999999731e-01 -9.212770000000000126e-01 -1.435084000000000026e+00 2.023179999999999978e-01 2.368500000000000050e-01 2.607110000000000261e-01 9.121259999999999923e-01 7.924600000000000533e-01 -1.730108999999999897e+00 6.720460000000000322e-01 -4.519369999999999776e-01 2.768269000000000091e+00
3.029499999999999901e-02 -1.776260000000000061e-01 2.295000000000000165e-02 3.221700000000000119e-01 -2.713099999999999887e-02 6.913049999999999473e-01 -4.331000000000000127e-02 -5.879590000000000094e-01 3.796080000000000010e-01 -2.133011000000000212e+00 -5.893009999999999637e-01 2.414020000000000055e-01 1.823855999999999922e+00 1.382017999999999969e+00 -1.335264999999999924e+00
-7.909739999999999549e-01 6.024600000000000094e-02 5.801979999999999915e-01 -1.247683000000000098e+00 -2.683749999999999747e-01 -1.115018999999999982e+00 -2.720139999999999780e-01 2.331290000000000029e-01 -1.366729999999999889e-01 7.681919999999999860e-01 4.677910000000000124e-01 -1.817984000000000044e+00 1.542478999999999933e+00 -4.927909999999999791e-01 2.489478000000000080e+00
1.450981999999999994e+00 1.600009999999999932e+00 -1.099279999999999979e-01 -1.232850000000000057e-01 1.499999999999999869e-04 -8.260349999999999637e-01 -4.086679999999999757e-01 8.636800000000000033e-02 1.244019999999999987e-01 1.345359999999999889e-01 4.455990000000000228e-01 1.774809999999999999e-01 -1.053565000000000085e+00 -2.132125999999999966e+00 6.340799999999999770e-01
-3.118009999999999948e-01 3.413829999999999920e-01 4.886480000000000268e-01 9.627550000000000274e-01 -1.519089999999999885e-01 1.240570000000000006e-01 2.506369999999999987e-01 4.140490000000000004e-01 5.211899999999999866e-02 4.850400000000000267e-01 -1.083318999999999921e+00 2.309924000000000088e+00 -1.386630000000000029e+00 4.797950000000000270e-01 -2.974747999999999948e+00
1.256694999999999895e+00 -4.304709999999999925e-01 2.293900000000000106e-01 6.844300000000000384e-02 -4.394089999999999940e-01 3.924239999999999950e-01 6.986240000000000228e-01 8.268699999999999661e-02 1.627080000000000082e+00 2.291279999999999983e-01 -2.742580000000000018e-01 -2.234900000000000081e-02 -2.252890999999999977e+00 1.061450999999999922e+00 -2.226545000000000218e+00
-8.603800000000000336e-02 -2.026299999999999976e-02 3.196700000000000097e-01 8.228800000000000003e-02 -2.636990000000000167e-01 4.042609999999999815e-01 -5.021949999999999470e-01 2.885329999999999839e-01 -1.490615000000000023e+00 -1.256130000000000024e-01 -2.580509999999999748e-01 1.339920000000000000e-01 6.315579999999999528e-01 2.534810000000000119e-01 6.326939999999999786e-01
-3.838599999999999790e-01 -8.339999999999999974e-04 -1.278990000000000127e-01 1.080985000000000085e+00 1.738323999999999980e+00 4.695840000000000014e-01 1.704819999999999947e-01 6.390800000000000647e-02 1.451070000000000138e-01 -1.425880000000000036e+00 6.190000000000000190e-03 1.389390000000000069e-01 5.582740000000000480e-01 -1.807587999999999973e+00 -6.257310000000000372e-01
3.146430000000000060e-01 1.040210000000000024e-01 4.033769999999999856e-01 -1.865650000000000086e-01 -1.009390000000000009e-01 -6.539000000000000368e-02 -2.529140000000000277e-01 2.978000000000000091e-02 5.619920000000000471e-01 -3.965199999999999975e-02 -4.745530000000000026e-01 -1.132395000000000040e+00 1.644879999999999953e-01 4.416910000000000003e-01 2.324160000000000115e-01
7.635920000000000485e-01 -3.669689999999999896e-01 -9.763370000000000104e-01 -1.402720000000000078e-01 2.514520000000000088e-01 8.873499999999999444e-02 -3.750569999999999737e-01 1.560677000000000092e+00 -2.408455000000000013e+00 -2.272899999999999920e-01 -4.554699999999999721e-02 -1.495920000000000027e-01 -2.097299999999999859e-02 -1.399612999999999996e+00 3.445647999999999822e+00
