 vasp.5.4.4.18Apr17-6-g9f103f2a35 (build Jul 12 2018 13:43:46) complex           
 executed on             LinuxGNU date 2019.06.24  13:12:26
 running on    1 total cores
 distrk:  each k-point on    1 cores,    1 groups
 distr:  one band on NCORES_PER_BAND=   1 cores,    1 groups


--------------------------------------------------------------------------------------------------------


 INCAR:
 POTCAR:    PAW_PBE H 15Jun2001                   
 POTCAR:    PAW_PBE C 08Apr2002                   
 POTCAR:    PAW_PBE H 15Jun2001                   
   VRHFIN =H: ultrasoft test                                                    
   LEXCH  = PE                                                                  
   EATOM  =    12.4884 eV,    0.9179 Ry                                         
                                                                                
   TITEL  = PAW_PBE H 15Jun2001                                                 
   LULTRA =        F    use ultrasoft PP ?                                      
   IUNSCR =        0    unscreen: 0-lin 1-nonlin 2-no                           
   RPACOR =    0.000    partial core radius                                     
   POMASS =    1.000; ZVAL   =    1.000    mass and valenz                      
   RCORE  =    1.100    outmost cutoff radius                                   
   RWIGS  =    0.700; RWIGS  =    0.370    wigner-seitz radius (au A)           
   ENMAX  =  250.000; ENMIN  =  200.000 eV                                      
   RCLOC  =    0.701    cutoff for local pot                                    
   LCOR   =        T    correct aug charges                                     
   LPAW   =        T    paw PP                                                  
   EAUG   =  400.000                                                            
   RMAX   =    1.123    core radius for proj-oper                               
   RAUG   =    1.200    factor for augmentation sphere                          
   RDEP   =    1.112    radius for radial grids                                 
   RDEPT  =    0.926    core radius for aug-charge                              
                                                                                
   Atomic configuration                                                         
    2 entries                                                                   
     n  l   j            E        occ.                                          
     1  0  0.50        -6.4927   1.0000                                         
     2  1  0.50        -3.4015   0.0000                                         
   Description                                                                  
     l       E           TYP  RCUT    TYP  RCUT                                 
     0     -6.4927494     23  1.100                                             
     0      6.8029130     23  1.100                                             
     1     -4.0817478     23  1.100                                             
  local pseudopotential read in
  atomic valenz-charges read in
  non local Contribution for L=           0  read in
    real space projection operators read in
  non local Contribution for L=           0  read in
    real space projection operators read in
  non local Contribution for L=           1  read in
    real space projection operators read in
    PAW grid and wavefunctions read in

   number of l-projection  operators is LMAX  =           3
   number of lm-projection operators is LMMAX =           5

 POTCAR:    PAW_PBE C 08Apr2002                   
   VRHFIN =C: s2p2                                                              
   LEXCH  = PE                                                                  
   EATOM  =   147.1560 eV,   10.8157 Ry                                         
                                                                                
   TITEL  = PAW_PBE C 08Apr2002                                                 
   LULTRA =        F    use ultrasoft PP ?                                      
   IUNSCR =        1    unscreen: 0-lin 1-nonlin 2-no                           
   RPACOR =    1.200    partial core radius                                     
   POMASS =   12.011; ZVAL   =    4.000    mass and valenz                      
   RCORE  =    1.500    outmost cutoff radius                                   
   RWIGS  =    1.630; RWIGS  =    0.863    wigner-seitz radius (au A)           
   ENMAX  =  400.000; ENMIN  =  300.000 eV                                      
   ICORE  =        2    local potential                                         
   LCOR   =        T    correct aug charges                                     
   LPAW   =        T    paw PP                                                  
   EAUG   =  644.873                                                            
   DEXC   =    0.000                                                            
   RMAX   =    1.529    core radius for proj-oper                               
   RAUG   =    1.300    factor for augmentation sphere                          
   RDEP   =    1.501    radius for radial grids                                 
   RDEPT  =    1.300    core radius for aug-charge                              
                                                                                
   Atomic configuration                                                         
    4 entries                                                                   
     n  l   j            E        occ.                                          
     1  0  0.50      -273.3789   2.0000                                         
     2  0  0.50       -13.7508   2.0000                                         
     2  1  0.50        -5.2854   2.0000                                         
     3  2  1.50        -5.4423   0.0000                                         
   Description                                                                  
     l       E           TYP  RCUT    TYP  RCUT                                 
     0    -13.7508458     23  1.200                                             
     0     -8.2022199     23  1.200                                             
     1     -5.2854383     23  1.500                                             
     1     34.0145650     23  1.500                                             
     2     -5.4423304      7  1.500                                             
  local pseudopotential read in
  partial core-charges read in
  partial kinetic energy density read in
  atomic valenz-charges read in
  non local Contribution for L=           0  read in
    real space projection operators read in
  non local Contribution for L=           0  read in
    real space projection operators read in
  non local Contribution for L=           1  read in
    real space projection operators read in
  non local Contribution for L=           1  read in
    real space projection operators read in
    PAW grid and wavefunctions read in

   number of l-projection  operators is LMAX  =           4
   number of lm-projection operators is LMMAX =           8


 ----------------------------------------------------------------------------- 
|                                                                             |
|  ADVICE TO THIS USER RUNNING 'VASP/VAMP'   (HEAR YOUR MASTER'S VOICE ...):  |
|                                                                             |
|      You have a (more or less) 'small supercell' and for smaller cells      |
|      it is recommended  to use the reciprocal-space projection scheme!      |
|      The real space optimization is not  efficient for small cells and it   |
|      is also less accurate ...                                              |
|      Therefore set LREAL=.FALSE. in the  INCAR file                         |
|                                                                             |
 ----------------------------------------------------------------------------- 

 Optimization of the real space projectors (new method)

 maximal supplied QI-value         = 34.20
 optimisation between [QCUT,QGAM] = [  9.92, 20.18] = [ 27.55,114.04] Ry 
 Optimized for a Real-space Cutoff    1.34 Angstroem

   l    n(q)    QCUT    max X(q) W(low)/X(q) W(high)/X(q)  e(spline) 
   0      8     9.919    19.460    0.16E-03    0.20E-03    0.36E-06
   0      8     9.919    12.209    0.16E-03    0.20E-03    0.35E-06
   1      8     9.919     4.655    0.19E-03    0.46E-03    0.40E-06
 Optimization of the real space projectors (new method)

 maximal supplied QI-value         = 25.13
 optimisation between [QCUT,QGAM] = [ 10.05, 20.36] = [ 28.30,116.06] Ry 
 Optimized for a Real-space Cutoff    1.51 Angstroem

   l    n(q)    QCUT    max X(q) W(low)/X(q) W(high)/X(q)  e(spline) 
   0      9    10.053   115.676    0.19E-03    0.21E-03    0.38E-06
   0      9    10.053    87.132    0.19E-03    0.21E-03    0.38E-06
   1      9    10.053     4.429    0.87E-04    0.11E-03    0.39E-06
   1      9    10.053     2.733    0.59E-04    0.62E-04    0.43E-06
  PAW_PBE H 15Jun2001                   :
 energy of atom  1       EATOM=  -12.4884
 kinetic energy error for atom=    0.0098 (will be added to EATOM!!)
  PAW_PBE C 08Apr2002                   :
 energy of atom  2       EATOM= -147.1560
 kinetic energy error for atom=    0.0288 (will be added to EATOM!!)


 POSCAR: POSCAR file written by OVITO            
  positions in cartesian coordinates
  No initial velocities read in
 exchange correlation table for  LEXCH =        8
   RHO(1)=    0.500       N(1)  =     2000
   RHO(2)=  100.500       N(2)  =     4000



--------------------------------------------------------------------------------------------------------


 ion  position               nearest neighbor table
   1  0.511  0.429  0.429-   5 1.07
   2  0.467  0.469  0.468-   5 1.08
   3  0.498  0.495  0.413-   5 1.10
   4  0.538  0.475  0.470-   5 1.11
   5  0.503  0.467  0.445-   1 1.07   2 1.08   3 1.10   4 1.11


IMPORTANT INFORMATION: All symmetrisations will be switched off!
NOSYMM: (Re-)initialisation of all symmetry stuff for point group C_1.




Automatic generation of k-mesh.
 generate k-points for:    1    1    1
Space group operators:
 irot       det(A)        alpha          n_x          n_y          n_z        tau_x        tau_y        tau_z
    1     1.000000     0.000000     1.000000     0.000000     0.000000     0.000000     0.000000     0.000000
 
 Subroutine IBZKPT returns following result:
 ===========================================
 
 Found      1 irreducible k-points:
 
 Following reciprocal coordinates:
            Coordinates               Weight
  0.000000  0.000000  0.000000      1.000000
 
 Following cartesian coordinates:
            Coordinates               Weight
  0.000000  0.000000  0.000000      1.000000
 


--------------------------------------------------------------------------------------------------------




 Dimension of arrays:
   k-points           NKPTS =      1   k-points in BZ     NKDIM =      1   number of bands    NBANDS=      8
   number of dos      NEDOS =    301   number of ions     NIONS =      5
   non local maximal  LDIM  =      4   non local SUM 2l+1 LMDIM =      8
   total plane-waves  NPLWV = ******
   max r-space proj   IRMAX =   4454   max aug-charges    IRDMAX=   3814
   dimension x,y,z NGX =   168 NGY =  168 NGZ =  180
   dimension x,y,z NGXF=   336 NGYF=  336 NGZF=  360
   support grid    NGXF=   336 NGYF=  336 NGZF=  360
   ions per type =               4   1
   NGX,Y,Z   is equivalent  to a cutoff of  11.21, 10.94, 11.47 a.u.
   NGXF,Y,Z  is equivalent  to a cutoff of  22.41, 21.88, 22.95 a.u.

 SYSTEM =  unknown system                          
 POSCAR =  POSCAR file written by OVITO            

 Startparameter for this run:
   NWRITE =      2    write-flag & timer
   PREC   = a         normal or accurate (medium, high low for compatibility)
   ISTART =      0    job   : 0-new  1-cont  2-samecut
   ICHARG =      2    charge: 1-file 2-atom 10-const
   ISPIN  =      1    spin polarized calculation?
   LNONCOLLINEAR =      F non collinear calculations
   LSORBIT =      F    spin-orbit coupling
   INIWAV =      1    electr: 0-lowe 1-rand  2-diag
   LASPH  =      F    aspherical Exc in radial PAW
   METAGGA=      F    non-selfconsistent MetaGGA calc.

 Electronic Relaxation 1
   ENCUT  =  400.0 eV  29.40 Ry    5.42 a.u.  40.64 41.63 42.53*2*pi/ulx,y,z
   ENINI  =  400.0     initial cutoff
   ENAUG  =  644.9 eV  augmentation charge cutoff
   NELM   =    120;   NELMIN=  4; NELMDL= -5     # of ELM steps 
   EDIFF  = 0.1E-05   stopping-criterion for ELM
   LREAL  =      T    real-space projection
   NLSPLINE    = F    spline interpolate recip. space projectors
   LCOMPAT=      F    compatible to vasp.4.4
   GGA_COMPAT  = T    GGA compatible to vasp.4.4-vasp.4.6
   LMAXPAW     = -100 max onsite density
   LMAXMIX     =    2 max onsite mixed and CHGCAR
   VOSKOWN=      0    Vosko Wilk Nusair interpolation
   ROPT   =   -0.00025  -0.00025
 Ionic relaxation
   EDIFFG = 0.1E-04   stopping-criterion for IOM
   NSW    =      0    number of steps for IOM
   NBLOCK =      1;   KBLOCK =      1    inner block; outer block 
   IBRION =     -1    ionic relax: 0-MD 1-quasi-New 2-CG
   NFREE  =      0    steps in history (QN), initial steepest desc. (CG)
   ISIF   =      2    stress and relaxation
   IWAVPR =     10    prediction:  0-non 1-charg 2-wave 3-comb
   ISYM   =      0    0-nonsym 1-usesym 2-fastsym
   LCORR  =      T    Harris-Foulkes like correction to forces

   POTIM  = 0.5000    time-step for ionic-motion
   TEIN   =    0.0    initial temperature
   TEBEG  =    0.0;   TEEND  =   0.0 temperature during run
   SMASS  =  -3.00    Nose mass-parameter (am)
   estimated Nose-frequenzy (Omega)   =  0.10E-29 period in steps =****** mass=  -0.142E-25a.u.
   SCALEE = 1.0000    scale energy and forces
   NPACO  =    256;   APACO  = 16.0  distance and # of slots for P.C.
   PSTRESS=    0.0 pullay stress

  Mass of Ions in am
   POMASS =   1.00 12.01
  Ionic Valenz
   ZVAL   =   1.00  4.00
  Atomic Wigner-Seitz radii
   RWIGS  =  -1.00 -1.00
  virtual crystal weights 
   VCA    =   1.00  1.00
   NELECT =       8.0000    total number of electrons
   NUPDOWN=      -1.0000    fix difference up-down

 DOS related values:
   EMIN   =  10.00;   EMAX   =-10.00  energy-range for DOS
   EFERMI =   0.00
   ISMEAR =     0;   SIGMA  =   0.05  broadening in eV -4-tet -1-fermi 0-gaus

 Electronic relaxation 2 (details)
   IALGO  =     38    algorithm
   LDIAG  =      T    sub-space diagonalisation (order eigenvalues)
   LSUBROT=      F    optimize rotation matrix (better conditioning)
   TURBO    =      0    0=normal 1=particle mesh
   IRESTART =      0    0=no restart 2=restart with 2 vectors
   NREBOOT  =      0    no. of reboots
   NMIN     =      0    reboot dimension
   EREF     =   0.00    reference energy to select bands
   IMIX   =      4    mixing-type and parameters
     AMIX     =   0.40;   BMIX     =  1.00
     AMIX_MAG =   1.60;   BMIX_MAG =  1.00
     AMIN     =   0.10
     WC   =   100.;   INIMIX=   1;  MIXPRE=   1;  MAXMIX= -45

 Intra band minimization:
   WEIMIN = 0.0000     energy-eigenvalue tresh-hold
   EBREAK =  0.31E-07  absolut break condition
   DEPER  =   0.30     relativ break condition  

   TIME   =   0.40     timestep for ELM

  volume/ion in A,a.u.               =    3317.31     22386.30
  Fermi-wavevector in a.u.,A,eV,Ry     =   0.128387  0.242615  0.224266  0.016483
  Thomas-Fermi vector in A             =   0.764036

 Write flags
   LWAVE        =      F    write WAVECAR
   LDOWNSAMPLE  =      F    k-point downsampling of WAVECAR
   LCHARG       =      F    write CHGCAR
   LVTOT        =      F    write LOCPOT, total local potential
   LVHAR        =      F    write LOCPOT, Hartree potential only
   LELF         =      F    write electronic localiz. function (ELF)
   LORBIT       =      0    0 simple, 1 ext, 2 COOP (PROOUT), +10 PAW based schemes


 Dipole corrections
   LMONO  =      F    monopole corrections only (constant potential shift)
   LDIPOL =      F    correct potential (dipole corrections)
   IDIPOL =      0    1-x, 2-y, 3-z, 4-all directions 
   EPSILON=  1.0000000 bulk dielectric constant

 Exchange correlation treatment:
   GGA     =    --    GGA type
   LEXCH   =     8    internal setting for exchange type
   VOSKOWN=      0    Vosko Wilk Nusair interpolation
   LHFCALC =     F    Hartree Fock is set to
   LHFONE  =     F    Hartree Fock one center treatment
   AEXX    =    0.0000 exact exchange contribution

 Linear response parameters
   LEPSILON=     F    determine dielectric tensor
   LRPA    =     F    only Hartree local field effects (RPA)
   LNABLA  =     F    use nabla operator in PAW spheres
   LVEL    =     F    velocity operator in full k-point grid
   LINTERFAST=   F  fast interpolation
   KINTER  =     0    interpolate to denser k-point grid
   CSHIFT  =0.1000    complex shift for real part using Kramers Kronig
   OMEGAMAX=  -1.0    maximum frequency
   DEG_THRESHOLD= 0.2000000E-02 threshold for treating states as degnerate
   RTIME   =   -0.100 relaxation time in fs
  (WPLASMAI=    0.000 imaginary part of plasma frequency in eV, 0.658/RTIME)
   DFIELD  = 0.0000000 0.0000000 0.0000000 field for delta impulse in time

 Orbital magnetization related:
   ORBITALMAG=     F  switch on orbital magnetization
   LCHIMAG   =     F  perturbation theory with respect to B field
   DQ        =  0.001000  dq finite difference perturbation B field
   LLRAUG    =     F  two centre corrections for induced B field



--------------------------------------------------------------------------------------------------------


 Static calculation
 charge density and potential will be updated during run
 non-spin polarized calculation
 Variant of blocked Davidson
 Davidson routine will perform the subspace rotation
 perform sub-space diagonalisation
    after iterative eigenvector-optimisation
 modified Broyden-mixing scheme, WC =      100.0
 initial mixing is a Kerker type mixing with AMIX =  0.4000 and BMIX =      1.0000
 Hartree-type preconditioning will be used
 using additional bands            4
 real space projection scheme for non local part
 use partial core corrections
 calculate Harris-corrections to forces   (improved forces if not selfconsistent)
 use gradient corrections 
 use of overlap-Matrix (Vanderbilt PP)
 Gauss-broadening in eV      SIGMA  =   0.05


--------------------------------------------------------------------------------------------------------


  energy-cutoff  :      400.00
  volume of cell :    16586.54
      direct lattice vectors                 reciprocal lattice vectors
    24.920728800  0.000000000  0.000000000     0.040127237 -0.001113897  0.000065925
     0.708440200 25.520980900  0.000000000     0.000000000  0.039183447 -0.000431867
    -0.034866700  0.287438600 26.079410600     0.000000000  0.000000000  0.038344425

  length of vectors
    24.920728800 25.530811848 26.081017884     0.040142749  0.039185827  0.038344425



 k-points in units of 2pi/SCALE and weight: read from INCAR                         
   0.00000000  0.00000000  0.00000000       1.000

 k-points in reciprocal lattice and weights: read from INCAR                         
   0.00000000  0.00000000  0.00000000       1.000

 position of ions in fractional coordinates (direct lattice) 
   0.51068663  0.42945720  0.42898926
   0.46740358  0.46872941  0.46821443
   0.49822274  0.49498167  0.41295784
   0.53814526  0.47542530  0.47042194
   0.50334408  0.46723641  0.44540336

 position of ions in cartesian coordinates  (Angst):
  13.01597020 11.08347700 11.18778710
  11.96377940 12.09701730 12.21075630
  12.75234030 12.75111770 10.76969720
  13.73138050 12.26853750 12.26832680
  12.85918060 12.05235770 11.61585710



--------------------------------------------------------------------------------------------------------


 k-point  1 :   0.0000 0.0000 0.0000  plane waves:  301371

 maximum and minimum number of plane-waves per node :    301371   301371

 maximum number of plane-waves:    301371
 maximum index in each direction: 
   IXMAX=   40   IYMAX=   41   IZMAX=   42
   IXMIN=  -40   IYMIN=  -41   IZMIN=  -42


 serial   3D FFT for wavefunctions
 parallel 3D FFT for charge:
    minimum data exchange during FFTs selected (reduces bandwidth)


 total amount of memory used by VASP MPI-rank0  3948450. kBytes
=======================================================================

   base      :      30000. kBytes
   nonlr-proj:       1205. kBytes
   fftplans  :    1389972. kBytes
   grid      :    2488679. kBytes
   one-center:         15. kBytes
   wavefun   :      38579. kBytes

     INWAV:  cpu time    0.0000: real time    0.0000
 Broyden mixing: mesh for mixing (old mesh)
   NGX = 81   NGY = 83   NGZ = 85
  (NGX  =336   NGY  =336   NGZ  =360)
  gives a total of 571455 points

 initial charge density was supplied:
 charge density of overlapping atoms calculated
 number of electron       8.0000000 magnetization 
 keeping initial charge density in first step


--------------------------------------------------------------------------------------------------------


 Maximum index for non-local projection operator         4283
 Maximum index for augmentation-charges         3493 (set IRDMAX)


--------------------------------------------------------------------------------------------------------


 First call to EWALD:  gamma=   0.070
 Maximum number of real-space cells 3x 3x 3
 Maximum number of reciprocal cells 3x 3x 3

    FEWALD:  cpu time    0.0008: real time    0.0008


--------------------------------------- Iteration      1(   1)  ---------------------------------------


    POTLOK:  cpu time   36.1145: real time   36.2021
    SETDIJ:  cpu time    0.0073: real time    0.0073
     EDDAV:  cpu time   22.3236: real time   22.3763
       DOS:  cpu time    0.0002: real time    0.0002
    --------------------------------------------
      LOOP:  cpu time   58.4457: real time   58.5860

 eigenvalue-minimisations  :    32
 total energy-change (2. order) : 0.2480547E+02  (-0.1324329E+03)
 number of electron       8.0000000 magnetization 
 augmentation part        8.0000000 magnetization 

 Free energy of the ion-electron system (eV)
  ---------------------------------------------------
  alpha Z        PSCENC =         0.01460526
  Ewald energy   TEWEN  =       208.83084888
  -Hartree energ DENC   =      -321.39296181
  -exchange      EXHF   =         0.00000000
  -V(xc)+E(xc)   XCENC  =        22.04991480
  PAW double counting   =       117.05815612     -117.66307307
  entropy T*S    EENTRO =        -0.00000000
  eigenvalues    EBANDS =       -81.13377306
  atomic energy  EATOM  =       197.04175453
  Solvation  Ediel_sol  =         0.00000000
  ---------------------------------------------------
  free energy    TOTEN  =        24.80547166 eV

  energy without entropy =       24.80547166  energy(sigma->0) =       24.80547166


--------------------------------------------------------------------------------------------------------




--------------------------------------- Iteration      1(   2)  ---------------------------------------


     EDDAV:  cpu time   17.2688: real time   17.3101
       DOS:  cpu time    0.0002: real time    0.0002
    --------------------------------------------
      LOOP:  cpu time   17.2690: real time   17.3103

 eigenvalue-minimisations  :    24
 total energy-change (2. order) :-0.4809680E+02  (-0.4809680E+02)
 number of electron       8.0000000 magnetization 
 augmentation part        8.0000000 magnetization 

 Free energy of the ion-electron system (eV)
  ---------------------------------------------------
  alpha Z        PSCENC =         0.01460526
  Ewald energy   TEWEN  =       208.83084888
  -Hartree energ DENC   =      -321.39296181
  -exchange      EXHF   =         0.00000000
  -V(xc)+E(xc)   XCENC  =        22.04991480
  PAW double counting   =       117.05815612     -117.66307307
  entropy T*S    EENTRO =        -0.00000000
  eigenvalues    EBANDS =      -129.23057321
  atomic energy  EATOM  =       197.04175453
  Solvation  Ediel_sol  =         0.00000000
  ---------------------------------------------------
  free energy    TOTEN  =       -23.29132849 eV

  energy without entropy =      -23.29132849  energy(sigma->0) =      -23.29132849


--------------------------------------------------------------------------------------------------------




--------------------------------------- Iteration      1(   3)  ---------------------------------------


     EDDAV:  cpu time   12.7791: real time   12.8093
       DOS:  cpu time    0.0001: real time    0.0001
    --------------------------------------------
      LOOP:  cpu time   12.7793: real time   12.8095

 eigenvalue-minimisations  :    16
 total energy-change (2. order) :-0.4186947E+01  (-0.4186947E+01)
 number of electron       8.0000000 magnetization 
 augmentation part        8.0000000 magnetization 

 Free energy of the ion-electron system (eV)
  ---------------------------------------------------
  alpha Z        PSCENC =         0.01460526
  Ewald energy   TEWEN  =       208.83084888
  -Hartree energ DENC   =      -321.39296181
  -exchange      EXHF   =         0.00000000
  -V(xc)+E(xc)   XCENC  =        22.04991480
  PAW double counting   =       117.05815612     -117.66307307
  entropy T*S    EENTRO =        -0.00000000
  eigenvalues    EBANDS =      -133.41752048
  atomic energy  EATOM  =       197.04175453
  Solvation  Ediel_sol  =         0.00000000
  ---------------------------------------------------
  free energy    TOTEN  =       -27.47827575 eV

  energy without entropy =      -27.47827575  energy(sigma->0) =      -27.47827575


--------------------------------------------------------------------------------------------------------




--------------------------------------- Iteration      1(   4)  ---------------------------------------


     EDDAV:  cpu time   22.0039: real time   22.0604
       DOS:  cpu time    0.0001: real time    0.0001
    --------------------------------------------
      LOOP:  cpu time   22.0040: real time   22.0606

 eigenvalue-minimisations  :    32
 total energy-change (2. order) :-0.1410683E+00  (-0.1410683E+00)
 number of electron       8.0000000 magnetization 
 augmentation part        8.0000000 magnetization 

 Free energy of the ion-electron system (eV)
  ---------------------------------------------------
  alpha Z        PSCENC =         0.01460526
  Ewald energy   TEWEN  =       208.83084888
  -Hartree energ DENC   =      -321.39296181
  -exchange      EXHF   =         0.00000000
  -V(xc)+E(xc)   XCENC  =        22.04991480
  PAW double counting   =       117.05815612     -117.66307307
  entropy T*S    EENTRO =        -0.00000000
  eigenvalues    EBANDS =      -133.55858878
  atomic energy  EATOM  =       197.04175453
  Solvation  Ediel_sol  =         0.00000000
  ---------------------------------------------------
  free energy    TOTEN  =       -27.61934406 eV

  energy without entropy =      -27.61934406  energy(sigma->0) =      -27.61934406


--------------------------------------------------------------------------------------------------------




--------------------------------------- Iteration      1(   5)  ---------------------------------------


     EDDAV:  cpu time   19.1150: real time   19.1642
       DOS:  cpu time    0.0001: real time    0.0001
    CHARGE:  cpu time    2.5652: real time    2.5713
    MIXING:  cpu time    0.6805: real time    0.6821
    --------------------------------------------
      LOOP:  cpu time   22.3609: real time   22.4178

 eigenvalue-minimisations  :    32
 total energy-change (2. order) :-0.4026898E-04  (-0.4026758E-04)
 number of electron       8.0000002 magnetization 
 augmentation part        0.2280753 magnetization 

 Broyden mixing:
  rms(total) = 0.88569E+00    rms(broyden)= 0.88548E+00
  rms(prec ) = 0.95009E+00
  weight for this iteration     100.00

 Free energy of the ion-electron system (eV)
  ---------------------------------------------------
  alpha Z        PSCENC =         0.01460526
  Ewald energy   TEWEN  =       208.83084888
  -Hartree energ DENC   =      -321.39296181
  -exchange      EXHF   =         0.00000000
  -V(xc)+E(xc)   XCENC  =        22.04991480
  PAW double counting   =       117.05815612     -117.66307307
  entropy T*S    EENTRO =        -0.00000000
  eigenvalues    EBANDS =      -133.55862905
  atomic energy  EATOM  =       197.04175453
  Solvation  Ediel_sol  =         0.00000000
  ---------------------------------------------------
  free energy    TOTEN  =       -27.61938433 eV

  energy without entropy =      -27.61938433  energy(sigma->0) =      -27.61938433


--------------------------------------------------------------------------------------------------------




--------------------------------------- Iteration      1(   6)  ---------------------------------------


    POTLOK:  cpu time   31.3144: real time   31.5071
    SETDIJ:  cpu time    0.0068: real time    0.0068
     EDDAV:  cpu time   13.6549: real time   13.8003
       DOS:  cpu time    0.0002: real time    0.0002
    CHARGE:  cpu time    2.2521: real time    2.2576
    MIXING:  cpu time    0.6566: real time    0.6582
    --------------------------------------------
      LOOP:  cpu time   47.8851: real time   48.2301

 eigenvalue-minimisations  :    24
 total energy-change (2. order) : 0.2974512E+01  (-0.9019018E+00)
 number of electron       8.0000001 magnetization 
 augmentation part        0.1994541 magnetization 

 Broyden mixing:
  rms(total) = 0.45296E+00    rms(broyden)= 0.45285E+00
  rms(prec ) = 0.47218E+00
  weight for this iteration     100.00

 eigenvalues of (default mixing * dielectric matrix)
  average eigenvalue GAMMA=   1.2000
  1.2000

 Free energy of the ion-electron system (eV)
  ---------------------------------------------------
  alpha Z        PSCENC =         0.01460526
  Ewald energy   TEWEN  =       208.83084888
  -Hartree energ DENC   =      -341.52983701
  -exchange      EXHF   =         0.00000000
  -V(xc)+E(xc)   XCENC  =        23.26834425
  PAW double counting   =       240.96545234     -241.74948241
  entropy T*S    EENTRO =        -0.00000000
  eigenvalues    EBANDS =      -111.48655864
  atomic energy  EATOM  =       197.04175453
  Solvation  Ediel_sol  =         0.00000000
  ---------------------------------------------------
  free energy    TOTEN  =       -24.64487280 eV

  energy without entropy =      -24.64487280  energy(sigma->0) =      -24.64487280


--------------------------------------------------------------------------------------------------------




--------------------------------------- Iteration      1(   7)  ---------------------------------------


    POTLOK:  cpu time   26.4536: real time   26.5187
    SETDIJ:  cpu time    0.0066: real time    0.0067
     EDDAV:  cpu time   14.5274: real time   14.5632
       DOS:  cpu time    0.0001: real time    0.0001
    CHARGE:  cpu time    2.5114: real time    2.5176
    MIXING:  cpu time    0.6955: real time    0.6971
    --------------------------------------------
      LOOP:  cpu time   44.1946: real time   44.3033

 eigenvalue-minimisations  :    24
 total energy-change (2. order) : 0.4872729E+00  (-0.7152671E-01)
 number of electron       8.0000001 magnetization 
 augmentation part        0.1912917 magnetization 

 Broyden mixing:
  rms(total) = 0.23486E+00    rms(broyden)= 0.23483E+00
  rms(prec ) = 0.24386E+00
  weight for this iteration     100.00

 eigenvalues of (default mixing * dielectric matrix)
  average eigenvalue GAMMA=   1.6795
  1.2502  2.1088

 Free energy of the ion-electron system (eV)
  ---------------------------------------------------
  alpha Z        PSCENC =         0.01460526
  Ewald energy   TEWEN  =       208.83084888
  -Hartree energ DENC   =      -351.51043070
  -exchange      EXHF   =         0.00000000
  -V(xc)+E(xc)   XCENC  =        24.01079921
  PAW double counting   =       366.80384333     -367.61520516
  entropy T*S    EENTRO =        -0.00000000
  eigenvalues    EBANDS =      -101.73381527
  atomic energy  EATOM  =       197.04175453
  Solvation  Ediel_sol  =         0.00000000
  ---------------------------------------------------
  free energy    TOTEN  =       -24.15759992 eV

  energy without entropy =      -24.15759992  energy(sigma->0) =      -24.15759992


--------------------------------------------------------------------------------------------------------




--------------------------------------- Iteration      1(   8)  ---------------------------------------


    POTLOK:  cpu time   26.0857: real time   26.1474
    SETDIJ:  cpu time    0.0064: real time    0.0064
     EDDAV:  cpu time   10.2140: real time   10.2382
       DOS:  cpu time    0.0001: real time    0.0001
    CHARGE:  cpu time    2.2546: real time    2.2599
    MIXING:  cpu time    0.6623: real time    0.6638
    --------------------------------------------
      LOOP:  cpu time   39.2231: real time   39.3159

 eigenvalue-minimisations  :    16
 total energy-change (2. order) : 0.1710908E+00  (-0.1775164E-01)
 number of electron       8.0000001 magnetization 
 augmentation part        0.1883621 magnetization 

 Broyden mixing:
  rms(total) = 0.28745E-01    rms(broyden)= 0.28719E-01
  rms(prec ) = 0.34927E-01
  weight for this iteration     100.00

 eigenvalues of (default mixing * dielectric matrix)
  average eigenvalue GAMMA=   1.5610
  2.1887  1.0770  1.4174

 Free energy of the ion-electron system (eV)
  ---------------------------------------------------
  alpha Z        PSCENC =         0.01460526
  Ewald energy   TEWEN  =       208.83084888
  -Hartree energ DENC   =      -358.75117512
  -exchange      EXHF   =         0.00000000
  -V(xc)+E(xc)   XCENC  =        24.63782475
  PAW double counting   =       481.33771465     -482.13782409
  entropy T*S    EENTRO =        -0.00000000
  eigenvalues    EBANDS =       -94.96025801
  atomic energy  EATOM  =       197.04175453
  Solvation  Ediel_sol  =         0.00000000
  ---------------------------------------------------
  free energy    TOTEN  =       -23.98650915 eV

  energy without entropy =      -23.98650915  energy(sigma->0) =      -23.98650915


--------------------------------------------------------------------------------------------------------




--------------------------------------- Iteration      1(   9)  ---------------------------------------


    POTLOK:  cpu time   25.3618: real time   25.4216
    SETDIJ:  cpu time    0.0064: real time    0.0064
     EDDAV:  cpu time   14.0505: real time   14.0837
       DOS:  cpu time    0.0001: real time    0.0001
    CHARGE:  cpu time    2.2125: real time    2.2178
    MIXING:  cpu time    0.7003: real time    0.7019
    --------------------------------------------
      LOOP:  cpu time   42.3316: real time   42.4316

 eigenvalue-minimisations  :    24
 total energy-change (2. order) : 0.7988700E-02  (-0.3873857E-03)
 number of electron       8.0000001 magnetization 
 augmentation part        0.1880235 magnetization 

 Broyden mixing:
  rms(total) = 0.17488E-01    rms(broyden)= 0.17483E-01
  rms(prec ) = 0.22363E-01
  weight for this iteration     100.00

 eigenvalues of (default mixing * dielectric matrix)
  average eigenvalue GAMMA=   1.9318
  3.1221  2.4194  1.2434  0.9422

 Free energy of the ion-electron system (eV)
  ---------------------------------------------------
  alpha Z        PSCENC =         0.01460526
  Ewald energy   TEWEN  =       208.83084888
  -Hartree energ DENC   =      -360.11404634
  -exchange      EXHF   =         0.00000000
  -V(xc)+E(xc)   XCENC  =        24.72124184
  PAW double counting   =       486.05907176     -486.85580142
  entropy T*S    EENTRO =        -0.00000000
  eigenvalues    EBANDS =       -93.67619496
  atomic energy  EATOM  =       197.04175453
  Solvation  Ediel_sol  =         0.00000000
  ---------------------------------------------------
  free energy    TOTEN  =       -23.97852045 eV

  energy without entropy =      -23.97852045  energy(sigma->0) =      -23.97852045


--------------------------------------------------------------------------------------------------------




--------------------------------------- Iteration      1(  10)  ---------------------------------------


    POTLOK:  cpu time   26.2376: real time   26.2999
    SETDIJ:  cpu time    0.0063: real time    0.0063
     EDDAV:  cpu time    9.9731: real time   10.0020
       DOS:  cpu time    0.0001: real time    0.0001
    CHARGE:  cpu time    2.1768: real time    2.1820
    MIXING:  cpu time    0.6624: real time    0.6639
    --------------------------------------------
      LOOP:  cpu time   39.0562: real time   39.1542

 eigenvalue-minimisations  :    16
 total energy-change (2. order) : 0.9259539E-02  (-0.6624817E-03)
 number of electron       8.0000001 magnetization 
 augmentation part        0.1876731 magnetization 

 Broyden mixing:
  rms(total) = 0.57876E-02    rms(broyden)= 0.57855E-02
  rms(prec ) = 0.86030E-02
  weight for this iteration     100.00

 eigenvalues of (default mixing * dielectric matrix)
  average eigenvalue GAMMA=   1.7186
  3.0429  2.3840  1.2258  0.9702  0.9702

 Free energy of the ion-electron system (eV)
  ---------------------------------------------------
  alpha Z        PSCENC =         0.01460526
  Ewald energy   TEWEN  =       208.83084888
  -Hartree energ DENC   =      -362.03975928
  -exchange      EXHF   =         0.00000000
  -V(xc)+E(xc)   XCENC  =        24.80503246
  PAW double counting   =       478.22305923     -479.01693370
  entropy T*S    EENTRO =        -0.00000000
  eigenvalues    EBANDS =       -91.82786831
  atomic energy  EATOM  =       197.04175453
  Solvation  Ediel_sol  =         0.00000000
  ---------------------------------------------------
  free energy    TOTEN  =       -23.96926092 eV

  energy without entropy =      -23.96926092  energy(sigma->0) =      -23.96926092


--------------------------------------------------------------------------------------------------------




--------------------------------------- Iteration      1(  11)  ---------------------------------------


    POTLOK:  cpu time   25.3114: real time   25.3713
    SETDIJ:  cpu time    0.0064: real time    0.0064
     EDDAV:  cpu time   13.7978: real time   13.8305
       DOS:  cpu time    0.0001: real time    0.0001
    CHARGE:  cpu time    2.3337: real time    2.3392
    MIXING:  cpu time    0.7638: real time    0.7656
    --------------------------------------------
      LOOP:  cpu time   42.2133: real time   42.3132

 eigenvalue-minimisations  :    24
 total energy-change (2. order) :-0.2879169E-02  (-0.3948372E-04)
 number of electron       8.0000001 magnetization 
 augmentation part        0.1875030 magnetization 

 Broyden mixing:
  rms(total) = 0.39409E-02    rms(broyden)= 0.39405E-02
  rms(prec ) = 0.65036E-02
  weight for this iteration     100.00

 eigenvalues of (default mixing * dielectric matrix)
  average eigenvalue GAMMA=   2.1240
  4.4862  2.8341  2.2866  1.2663  0.9787  0.8919

 Free energy of the ion-electron system (eV)
  ---------------------------------------------------
  alpha Z        PSCENC =         0.01460526
  Ewald energy   TEWEN  =       208.83084888
  -Hartree energ DENC   =      -362.31764762
  -exchange      EXHF   =         0.00000000
  -V(xc)+E(xc)   XCENC  =        24.81391608
  PAW double counting   =       479.56372637     -480.35794174
  entropy T*S    EENTRO =        -0.00000000
  eigenvalues    EBANDS =       -91.56140185
  atomic energy  EATOM  =       197.04175453
  Solvation  Ediel_sol  =         0.00000000
  ---------------------------------------------------
  free energy    TOTEN  =       -23.97214008 eV

  energy without entropy =      -23.97214008  energy(sigma->0) =      -23.97214008


--------------------------------------------------------------------------------------------------------




--------------------------------------- Iteration      1(  12)  ---------------------------------------


    POTLOK:  cpu time   25.8188: real time   25.8799
    SETDIJ:  cpu time    0.0062: real time    0.0062
     EDDAV:  cpu time    9.8989: real time    9.9238
       DOS:  cpu time    0.0001: real time    0.0001
    CHARGE:  cpu time    2.0987: real time    2.1037
    MIXING:  cpu time    0.6974: real time    0.6991
    --------------------------------------------
      LOOP:  cpu time   38.5201: real time   38.6129

 eigenvalue-minimisations  :    16
 total energy-change (2. order) :-0.4776781E-02  (-0.9113466E-04)
 number of electron       8.0000001 magnetization 
 augmentation part        0.1874376 magnetization 

 Broyden mixing:
  rms(total) = 0.20076E-02    rms(broyden)= 0.20072E-02
  rms(prec ) = 0.29632E-02
  weight for this iteration     100.00

 eigenvalues of (default mixing * dielectric matrix)
  average eigenvalue GAMMA=   2.1270
  4.8038  3.1166  2.3216  1.3600  1.3600  1.0306  0.8962

 Free energy of the ion-electron system (eV)
  ---------------------------------------------------
  alpha Z        PSCENC =         0.01460526
  Ewald energy   TEWEN  =       208.83084888
  -Hartree energ DENC   =      -362.98842066
  -exchange      EXHF   =         0.00000000
  -V(xc)+E(xc)   XCENC  =        24.82699153
  PAW double counting   =       477.31772953     -478.11148721
  entropy T*S    EENTRO =        -0.00000000
  eigenvalues    EBANDS =       -90.90893874
  atomic energy  EATOM  =       197.04175453
  Solvation  Ediel_sol  =         0.00000000
  ---------------------------------------------------
  free energy    TOTEN  =       -23.97691687 eV

  energy without entropy =      -23.97691687  energy(sigma->0) =      -23.97691687


--------------------------------------------------------------------------------------------------------




--------------------------------------- Iteration      1(  13)  ---------------------------------------


    POTLOK:  cpu time   25.2252: real time   25.2849
    SETDIJ:  cpu time    0.0063: real time    0.0063
     EDDAV:  cpu time   14.2653: real time   14.2992
       DOS:  cpu time    0.0001: real time    0.0001
    CHARGE:  cpu time    2.1754: real time    2.1805
    MIXING:  cpu time    0.7881: real time    0.7900
    --------------------------------------------
      LOOP:  cpu time   42.4604: real time   42.5611

 eigenvalue-minimisations  :    24
 total energy-change (2. order) :-0.3504231E-02  (-0.6314029E-04)
 number of electron       8.0000001 magnetization 
 augmentation part        0.1872959 magnetization 

 Broyden mixing:
  rms(total) = 0.19021E-02    rms(broyden)= 0.19017E-02
  rms(prec ) = 0.23942E-02
  weight for this iteration     100.00

 eigenvalues of (default mixing * dielectric matrix)
  average eigenvalue GAMMA=   2.3567
  5.9081  3.8898  2.4716  2.4716  1.2363  1.0493  0.8924  0.9347

 Free energy of the ion-electron system (eV)
  ---------------------------------------------------
  alpha Z        PSCENC =         0.01460526
  Ewald energy   TEWEN  =       208.83084888
  -Hartree energ DENC   =      -363.12382605
  -exchange      EXHF   =         0.00000000
  -V(xc)+E(xc)   XCENC  =        24.82582521
  PAW double counting   =       477.98739518     -478.78166386
  entropy T*S    EENTRO =        -0.00000000
  eigenvalues    EBANDS =       -90.77536026
  atomic energy  EATOM  =       197.04175453
  Solvation  Ediel_sol  =         0.00000000
  ---------------------------------------------------
  free energy    TOTEN  =       -23.98042110 eV

  energy without entropy =      -23.98042110  energy(sigma->0) =      -23.98042110


--------------------------------------------------------------------------------------------------------




--------------------------------------- Iteration      1(  14)  ---------------------------------------


    POTLOK:  cpu time   25.3419: real time   25.4021
    SETDIJ:  cpu time    0.0062: real time    0.0062
     EDDAV:  cpu time   17.4884: real time   17.5299
       DOS:  cpu time    0.0001: real time    0.0001
    CHARGE:  cpu time    2.0649: real time    2.0698
    MIXING:  cpu time    0.7950: real time    0.7969
    --------------------------------------------
      LOOP:  cpu time   45.6965: real time   45.8050

 eigenvalue-minimisations  :    32
 total energy-change (2. order) :-0.2401069E-02  (-0.4037641E-04)
 number of electron       8.0000001 magnetization 
 augmentation part        0.1873533 magnetization 

 Broyden mixing:
  rms(total) = 0.78563E-03    rms(broyden)= 0.78544E-03
  rms(prec ) = 0.10101E-02
  weight for this iteration     100.00

 eigenvalues of (default mixing * dielectric matrix)
  average eigenvalue GAMMA=   2.3034
  6.2441  4.0128  2.6799  2.1990  1.4054  1.1670  1.1670  0.9277  0.9277

 Free energy of the ion-electron system (eV)
  ---------------------------------------------------
  alpha Z        PSCENC =         0.01460526
  Ewald energy   TEWEN  =       208.83084888
  -Hartree energ DENC   =      -363.10864373
  -exchange      EXHF   =         0.00000000
  -V(xc)+E(xc)   XCENC  =        24.81774108
  PAW double counting   =       477.63828193     -478.43187434
  entropy T*S    EENTRO =        -0.00000000
  eigenvalues    EBANDS =       -90.78553578
  atomic energy  EATOM  =       197.04175453
  Solvation  Ediel_sol  =         0.00000000
  ---------------------------------------------------
  free energy    TOTEN  =       -23.98282217 eV

  energy without entropy =      -23.98282217  energy(sigma->0) =      -23.98282217


--------------------------------------------------------------------------------------------------------




--------------------------------------- Iteration      1(  15)  ---------------------------------------


    POTLOK:  cpu time   25.2548: real time   25.3146
    SETDIJ:  cpu time    0.0064: real time    0.0064
     EDDAV:  cpu time   16.8243: real time   16.8642
       DOS:  cpu time    0.0001: real time    0.0001
    CHARGE:  cpu time    2.0379: real time    2.0427
    MIXING:  cpu time    0.9406: real time    0.9428
    --------------------------------------------
      LOOP:  cpu time   45.0640: real time   45.1708

 eigenvalue-minimisations  :    32
 total energy-change (2. order) :-0.4959255E-03  (-0.1622605E-05)
 number of electron       8.0000001 magnetization 
 augmentation part        0.1873395 magnetization 

 Broyden mixing:
  rms(total) = 0.67741E-03    rms(broyden)= 0.67732E-03
  rms(prec ) = 0.80651E-03
  weight for this iteration     100.00

 eigenvalues of (default mixing * dielectric matrix)
  average eigenvalue GAMMA=   2.5065
  7.5323  4.6505  2.9876  2.5392  2.0716  1.2116  1.2116  1.0141  0.9233  0.9233

 Free energy of the ion-electron system (eV)
  ---------------------------------------------------
  alpha Z        PSCENC =         0.01460526
  Ewald energy   TEWEN  =       208.83084888
  -Hartree energ DENC   =      -363.15959876
  -exchange      EXHF   =         0.00000000
  -V(xc)+E(xc)   XCENC  =        24.82031652
  PAW double counting   =       478.01979959     -478.81342078
  entropy T*S    EENTRO =        -0.00000000
  eigenvalues    EBANDS =       -90.73762334
  atomic energy  EATOM  =       197.04175453
  Solvation  Ediel_sol  =         0.00000000
  ---------------------------------------------------
  free energy    TOTEN  =       -23.98331809 eV

  energy without entropy =      -23.98331809  energy(sigma->0) =      -23.98331809


--------------------------------------------------------------------------------------------------------




--------------------------------------- Iteration      1(  16)  ---------------------------------------


    POTLOK:  cpu time   25.6126: real time   25.6732
    SETDIJ:  cpu time    0.0064: real time    0.0065
     EDDAV:  cpu time    9.4663: real time    9.4886
       DOS:  cpu time    0.0001: real time    0.0001
    CHARGE:  cpu time    2.1269: real time    2.1320
    MIXING:  cpu time    0.7949: real time    0.7968
    --------------------------------------------
      LOOP:  cpu time   38.0072: real time   38.0971

 eigenvalue-minimisations  :    16
 total energy-change (2. order) :-0.6269001E-03  (-0.4095972E-05)
 number of electron       8.0000001 magnetization 
 augmentation part        0.1873451 magnetization 

 Broyden mixing:
  rms(total) = 0.38380E-03    rms(broyden)= 0.38379E-03
  rms(prec ) = 0.43267E-03
  weight for this iteration     100.00

 eigenvalues of (default mixing * dielectric matrix)
  average eigenvalue GAMMA=   2.5616
  8.0764  4.8254  3.3958  2.4673  2.4673  1.6966  1.2162  1.2162  1.0043  0.9062
  0.9062

 Free energy of the ion-electron system (eV)
  ---------------------------------------------------
  alpha Z        PSCENC =         0.01460526
  Ewald energy   TEWEN  =       208.83084888
  -Hartree energ DENC   =      -363.15754409
  -exchange      EXHF   =         0.00000000
  -V(xc)+E(xc)   XCENC  =        24.81794031
  PAW double counting   =       477.38044295     -478.17410449
  entropy T*S    EENTRO =        -0.00000000
  eigenvalues    EBANDS =       -90.73788835
  atomic energy  EATOM  =       197.04175453
  Solvation  Ediel_sol  =         0.00000000
  ---------------------------------------------------
  free energy    TOTEN  =       -23.98394499 eV

  energy without entropy =      -23.98394499  energy(sigma->0) =      -23.98394499


--------------------------------------------------------------------------------------------------------




--------------------------------------- Iteration      1(  17)  ---------------------------------------


    POTLOK:  cpu time   25.3643: real time   25.4242
    SETDIJ:  cpu time    0.0062: real time    0.0063
     EDDAV:  cpu time   12.9343: real time   12.9649
       DOS:  cpu time    0.0001: real time    0.0001
    CHARGE:  cpu time    2.0185: real time    2.0232
    MIXING:  cpu time    0.8079: real time    0.8098
    --------------------------------------------
      LOOP:  cpu time   41.1313: real time   41.2284

 eigenvalue-minimisations  :    24
 total energy-change (2. order) :-0.1947847E-03  (-0.3888387E-06)
 number of electron       8.0000001 magnetization 
 augmentation part        0.1873409 magnetization 

 Broyden mixing:
  rms(total) = 0.27479E-03    rms(broyden)= 0.27477E-03
  rms(prec ) = 0.29633E-03
  weight for this iteration     100.00

 eigenvalues of (default mixing * dielectric matrix)
  average eigenvalue GAMMA=   2.6325
  8.7041  5.3195  3.9763  2.8083  2.4052  1.9831  1.3213  1.2198  1.0539  0.9961
  0.9012  0.9012

 Free energy of the ion-electron system (eV)
  ---------------------------------------------------
  alpha Z        PSCENC =         0.01460526
  Ewald energy   TEWEN  =       208.83084888
  -Hartree energ DENC   =      -363.17560134
  -exchange      EXHF   =         0.00000000
  -V(xc)+E(xc)   XCENC  =        24.81891004
  PAW double counting   =       477.62234740     -478.41598174
  entropy T*S    EENTRO =        -0.00000000
  eigenvalues    EBANDS =       -90.72102281
  atomic energy  EATOM  =       197.04175453
  Solvation  Ediel_sol  =         0.00000000
  ---------------------------------------------------
  free energy    TOTEN  =       -23.98413978 eV

  energy without entropy =      -23.98413978  energy(sigma->0) =      -23.98413978


--------------------------------------------------------------------------------------------------------




--------------------------------------- Iteration      1(  18)  ---------------------------------------


    POTLOK:  cpu time   25.2259: real time   25.2858
    SETDIJ:  cpu time    0.0063: real time    0.0063
     EDDAV:  cpu time    9.2176: real time    9.2394
       DOS:  cpu time    0.0001: real time    0.0001
    CHARGE:  cpu time    2.0105: real time    2.0153
    MIXING:  cpu time    0.8222: real time    0.8241
    --------------------------------------------
      LOOP:  cpu time   37.2825: real time   37.3710

 eigenvalue-minimisations  :    16
 total energy-change (2. order) :-0.7073590E-04  (-0.9441522E-07)
 number of electron       8.0000001 magnetization 
 augmentation part        0.1873371 magnetization 

 Broyden mixing:
  rms(total) = 0.99777E-04    rms(broyden)= 0.99760E-04
  rms(prec ) = 0.11303E-03
  weight for this iteration     100.00

 eigenvalues of (default mixing * dielectric matrix)
  average eigenvalue GAMMA=   2.6900
  9.0193  5.7508  4.0822  2.9917  2.5915  2.2589  1.9607  1.2333  1.2333  0.9148
  0.9148  0.9900  1.0279

 Free energy of the ion-electron system (eV)
  ---------------------------------------------------
  alpha Z        PSCENC =         0.01460526
  Ewald energy   TEWEN  =       208.83084888
  -Hartree energ DENC   =      -363.18007473
  -exchange      EXHF   =         0.00000000
  -V(xc)+E(xc)   XCENC  =        24.81877141
  PAW double counting   =       477.60126858     -478.39494200
  entropy T*S    EENTRO =        -0.00000000
  eigenvalues    EBANDS =       -90.71644245
  atomic energy  EATOM  =       197.04175453
  Solvation  Ediel_sol  =         0.00000000
  ---------------------------------------------------
  free energy    TOTEN  =       -23.98421051 eV

  energy without entropy =      -23.98421051  energy(sigma->0) =      -23.98421051


--------------------------------------------------------------------------------------------------------




--------------------------------------- Iteration      1(  19)  ---------------------------------------


    POTLOK:  cpu time   25.1785: real time   25.2381
    SETDIJ:  cpu time    0.0062: real time    0.0062
     EDDAV:  cpu time   12.7410: real time   12.7712
       DOS:  cpu time    0.0001: real time    0.0001
    CHARGE:  cpu time    2.0469: real time    2.0518
    MIXING:  cpu time    0.8966: real time    0.8987
    --------------------------------------------
      LOOP:  cpu time   40.8693: real time   40.9661

 eigenvalue-minimisations  :    24
 total energy-change (2. order) :-0.3850651E-04  (-0.3452820E-07)
 number of electron       8.0000001 magnetization 
 augmentation part        0.1873353 magnetization 

 Broyden mixing:
  rms(total) = 0.92105E-04    rms(broyden)= 0.92072E-04
  rms(prec ) = 0.99002E-04
  weight for this iteration     100.00

 eigenvalues of (default mixing * dielectric matrix)
  average eigenvalue GAMMA=   2.6747
  9.2653  6.0994  4.2864  3.5377  2.5805  2.3716  1.7997  1.4228  1.2252  0.9125
  0.9125  1.0016  1.0016  1.0287

 Free energy of the ion-electron system (eV)
  ---------------------------------------------------
  alpha Z        PSCENC =         0.01460526
  Ewald energy   TEWEN  =       208.83084888
  -Hartree energ DENC   =      -363.17827145
  -exchange      EXHF   =         0.00000000
  -V(xc)+E(xc)   XCENC  =        24.81845386
  PAW double counting   =       477.59108916     -478.38477609
  entropy T*S    EENTRO =        -0.00000000
  eigenvalues    EBANDS =       -90.71795317
  atomic energy  EATOM  =       197.04175453
  Solvation  Ediel_sol  =         0.00000000
  ---------------------------------------------------
  free energy    TOTEN  =       -23.98424902 eV

  energy without entropy =      -23.98424902  energy(sigma->0) =      -23.98424902


--------------------------------------------------------------------------------------------------------




--------------------------------------- Iteration      1(  20)  ---------------------------------------


    POTLOK:  cpu time   24.9762: real time   25.0354
    SETDIJ:  cpu time    0.0062: real time    0.0062
     EDDAV:  cpu time    9.2050: real time    9.2267
       DOS:  cpu time    0.0001: real time    0.0001
    CHARGE:  cpu time    2.0375: real time    2.0423
    MIXING:  cpu time    0.9328: real time    0.9350
    --------------------------------------------
      LOOP:  cpu time   37.1578: real time   37.2457

 eigenvalue-minimisations  :    16
 total energy-change (2. order) :-0.1171330E-04  (-0.2243045E-07)
 number of electron       8.0000001 magnetization 
 augmentation part        0.1873389 magnetization 

 Broyden mixing:
  rms(total) = 0.27830E-04    rms(broyden)= 0.27817E-04
  rms(prec ) = 0.31844E-04
  weight for this iteration     100.00

 eigenvalues of (default mixing * dielectric matrix)
  average eigenvalue GAMMA=   2.7271
  9.4196  6.3480  4.7629  3.5854  2.9803  2.4580  2.1998  1.8653  1.2287  1.2469
  1.0450  0.9833  0.9833  0.8999  0.8999

 Free energy of the ion-electron system (eV)
  ---------------------------------------------------
  alpha Z        PSCENC =         0.01460526
  Ewald energy   TEWEN  =       208.83084888
  -Hartree energ DENC   =      -363.17618618
  -exchange      EXHF   =         0.00000000
  -V(xc)+E(xc)   XCENC  =        24.81831781
  PAW double counting   =       477.59543657     -478.38909686
  entropy T*S    EENTRO =        -0.00000000
  eigenvalues    EBANDS =       -90.71994075
  atomic energy  EATOM  =       197.04175453
  Solvation  Ediel_sol  =         0.00000000
  ---------------------------------------------------
  free energy    TOTEN  =       -23.98426073 eV

  energy without entropy =      -23.98426073  energy(sigma->0) =      -23.98426073


--------------------------------------------------------------------------------------------------------




--------------------------------------- Iteration      1(  21)  ---------------------------------------


    POTLOK:  cpu time   24.7021: real time   24.7604
    SETDIJ:  cpu time    0.0063: real time    0.0063
     EDDAV:  cpu time    9.2459: real time    9.2678
       DOS:  cpu time    0.0001: real time    0.0001
    CHARGE:  cpu time    2.0328: real time    2.0376
    MIXING:  cpu time    0.9647: real time    0.9670
    --------------------------------------------
      LOOP:  cpu time   36.9520: real time   37.0392

 eigenvalue-minimisations  :    16
 total energy-change (2. order) :-0.6817131E-05  (-0.1785679E-08)
 number of electron       8.0000001 magnetization 
 augmentation part        0.1873381 magnetization 

 Broyden mixing:
  rms(total) = 0.88166E-05    rms(broyden)= 0.88071E-05
  rms(prec ) = 0.10960E-04
  weight for this iteration     100.00

 eigenvalues of (default mixing * dielectric matrix)
  average eigenvalue GAMMA=   2.6724
  9.4914  6.5321  4.9218  3.7034  3.1760  2.4888  2.3033  1.8155  1.3537  1.2292
  1.0477  0.9982  0.9982  0.9041  0.9041  0.8902

 Free energy of the ion-electron system (eV)
  ---------------------------------------------------
  alpha Z        PSCENC =         0.01460526
  Ewald energy   TEWEN  =       208.83084888
  -Hartree energ DENC   =      -363.17803587
  -exchange      EXHF   =         0.00000000
  -V(xc)+E(xc)   XCENC  =        24.81843672
  PAW double counting   =       477.58886072     -478.38252285
  entropy T*S    EENTRO =        -0.00000000
  eigenvalues    EBANDS =       -90.71821494
  atomic energy  EATOM  =       197.04175453
  Solvation  Ediel_sol  =         0.00000000
  ---------------------------------------------------
  free energy    TOTEN  =       -23.98426755 eV

  energy without entropy =      -23.98426755  energy(sigma->0) =      -23.98426755


--------------------------------------------------------------------------------------------------------




--------------------------------------- Iteration      1(  22)  ---------------------------------------


    POTLOK:  cpu time   25.4431: real time   25.5035
    SETDIJ:  cpu time    0.0063: real time    0.0063
     EDDAV:  cpu time    9.5387: real time    9.5613
       DOS:  cpu time    0.0001: real time    0.0001
    CHARGE:  cpu time    2.0378: real time    2.0427
    MIXING:  cpu time    0.9822: real time    0.9845
    --------------------------------------------
      LOOP:  cpu time   38.0082: real time   38.0985

 eigenvalue-minimisations  :    16
 total energy-change (2. order) :-0.1611325E-05  ( 0.6614762E-09)
 number of electron       8.0000001 magnetization 
 augmentation part        0.1873379 magnetization 

 Broyden mixing:
  rms(total) = 0.73991E-05    rms(broyden)= 0.73986E-05
  rms(prec ) = 0.86785E-05
  weight for this iteration     100.00

 eigenvalues of (default mixing * dielectric matrix)
  average eigenvalue GAMMA=   2.7064
  9.5663  6.7863  5.0991  4.0921  2.9600  2.8681  2.3782  2.0324  1.9763  1.2480
  1.1783  1.0790  0.9935  0.9935  0.9021  0.9021  0.9527

 Free energy of the ion-electron system (eV)
  ---------------------------------------------------
  alpha Z        PSCENC =         0.01460526
  Ewald energy   TEWEN  =       208.83084888
  -Hartree energ DENC   =      -363.17816754
  -exchange      EXHF   =         0.00000000
  -V(xc)+E(xc)   XCENC  =        24.81844489
  PAW double counting   =       477.58736029     -478.38102443
  entropy T*S    EENTRO =        -0.00000000
  eigenvalues    EBANDS =       -90.71809104
  atomic energy  EATOM  =       197.04175453
  Solvation  Ediel_sol  =         0.00000000
  ---------------------------------------------------
  free energy    TOTEN  =       -23.98426916 eV

  energy without entropy =      -23.98426916  energy(sigma->0) =      -23.98426916


--------------------------------------------------------------------------------------------------------




--------------------------------------- Iteration      1(  23)  ---------------------------------------


    POTLOK:  cpu time   25.2998: real time   25.3597
    SETDIJ:  cpu time    0.0062: real time    0.0063
     EDDAV:  cpu time    9.3518: real time    9.3740
       DOS:  cpu time    0.0001: real time    0.0001
    CHARGE:  cpu time    2.0346: real time    2.0394
    MIXING:  cpu time    0.9830: real time    0.9853
    --------------------------------------------
      LOOP:  cpu time   37.6756: real time   37.7648

 eigenvalue-minimisations  :    16
 total energy-change (2. order) :-0.1300139E-05  ( 0.3831353E-09)
 number of electron       8.0000001 magnetization 
 augmentation part        0.1873380 magnetization 

 Broyden mixing:
  rms(total) = 0.27469E-05    rms(broyden)= 0.27464E-05
  rms(prec ) = 0.34919E-05
  weight for this iteration     100.00

 eigenvalues of (default mixing * dielectric matrix)
  average eigenvalue GAMMA=   2.7299
  9.5952  7.0915  5.4315  4.4180  3.5334  2.7528  2.5301  2.2363  1.8069  1.5751
  1.2293  0.9015  0.9015  1.0307  1.0307  1.0780  1.0322  0.9633

 Free energy of the ion-electron system (eV)
  ---------------------------------------------------
  alpha Z        PSCENC =         0.01460526
  Ewald energy   TEWEN  =       208.83084888
  -Hartree energ DENC   =      -363.17787667
  -exchange      EXHF   =         0.00000000
  -V(xc)+E(xc)   XCENC  =        24.81841700
  PAW double counting   =       477.58811793     -478.38178307
  entropy T*S    EENTRO =        -0.00000000
  eigenvalues    EBANDS =       -90.71835432
  atomic energy  EATOM  =       197.04175453
  Solvation  Ediel_sol  =         0.00000000
  ---------------------------------------------------
  free energy    TOTEN  =       -23.98427046 eV

  energy without entropy =      -23.98427046  energy(sigma->0) =      -23.98427046


--------------------------------------------------------------------------------------------------------




--------------------------------------- Iteration      1(  24)  ---------------------------------------


    POTLOK:  cpu time   25.1159: real time   25.1754
    SETDIJ:  cpu time    0.0063: real time    0.0063
     EDDAV:  cpu time   12.4733: real time   12.5027
       DOS:  cpu time    0.0001: real time    0.0001
    --------------------------------------------
      LOOP:  cpu time   37.5956: real time   37.6846

 eigenvalue-minimisations  :    24
 total energy-change (2. order) :-0.3801967E-06  ( 0.4674483E-09)
 number of electron       8.0000001 magnetization 
 augmentation part        0.1873380 magnetization 

 Free energy of the ion-electron system (eV)
  ---------------------------------------------------
  alpha Z        PSCENC =         0.01460526
  Ewald energy   TEWEN  =       208.83084888
  -Hartree energ DENC   =      -363.17794659
  -exchange      EXHF   =         0.00000000
  -V(xc)+E(xc)   XCENC  =        24.81841841
  PAW double counting   =       477.58772994     -478.38139466
  entropy T*S    EENTRO =        -0.00000000
  eigenvalues    EBANDS =       -90.71828662
  atomic energy  EATOM  =       197.04175453
  Solvation  Ediel_sol  =         0.00000000
  ---------------------------------------------------
  free energy    TOTEN  =       -23.98427084 eV

  energy without entropy =      -23.98427084  energy(sigma->0) =      -23.98427084


--------------------------------------------------------------------------------------------------------




 average (electrostatic) potential at core
  the test charge radii are     0.5201  0.6991
  (the norm of the test charge is              1.0000)
       1 -41.8046       2 -41.7826       3 -41.5680       4 -41.5159       5 -58.0417



 E-fermi :  -8.8731     XC(G=0):  -0.0605     alpha+bet : -0.0127


 k-point     1 :       0.0000    0.0000    0.0000
  band No.  band energies     occupation 
      1     -17.0645      2.00000
      2      -9.6432      2.00000
      3      -9.5281      2.00000
      4      -9.1234      2.00000
      5      -0.4064      0.00000
      6       0.0186      0.00000
      7       0.1858      0.00000
      8       0.1964      0.00000


--------------------------------------------------------------------------------------------------------


 soft charge-density along one line, spin component           1
         0         1         2         3         4         5         6         7         8         9
 total charge-density along one line

 pseudopotential strength for first ion, spin component:           1
 -2.344  -4.040  -0.002  -0.001   0.000
 -4.040  -6.877  -0.005  -0.002   0.001
 -0.002  -0.005  -0.332   0.002  -0.001
 -0.001  -0.002   0.002  -0.336  -0.000
  0.000   0.001  -0.001  -0.000  -0.337
 total augmentation occupancy for first ion, spin component:           1
  3.640  -0.651   0.417   0.186  -0.069
 -0.651   0.132  -0.077  -0.033   0.012
  0.417  -0.077   0.050   0.018  -0.006
  0.186  -0.033   0.018   0.018  -0.003
 -0.069   0.012  -0.006  -0.003   0.011


------------------------ aborting loop because EDIFF is reached ----------------------------------------


    CHARGE:  cpu time    1.9545: real time    1.9591
    FORLOC:  cpu time    1.6444: real time    1.6483
    FORNL :  cpu time    2.8114: real time    2.8181
    STRESS:  cpu time   10.3036: real time   10.3281
    FORCOR:  cpu time   27.6558: real time   27.7212
    FORHAR:  cpu time    8.7572: real time    8.7779
    MIXING:  cpu time    1.0234: real time    1.0259
    OFIELD:  cpu time    0.0000: real time    0.0000

  FORCE on cell =-STRESS in cart. coord.  units (eV):
  Direction    XX          YY          ZZ          XY          YZ          ZX
  --------------------------------------------------------------------------------------
  Alpha Z     0.01461     0.01461     0.01461
  Ewald      71.03520    65.64585    72.14979    -4.70523     1.33647     0.27071
  Hartree   122.36627   119.68068   121.13102    -1.08750     0.13348     0.54793
  E(xc)     -27.29149   -27.31851   -27.27004    -0.02359     0.00150     0.01040
  Local    -251.83025  -244.26701  -251.20509     4.84127    -1.02314    -1.12849
  n-local   -16.05446   -16.13689   -16.03947     0.01635    -0.04584     0.06952
  augment     0.11225     0.11421     0.10919     0.00729    -0.00462     0.00420
  Kinetic   101.50746   102.94077   100.52304     1.10579    -0.05659    -0.50145
  Fock        0.00000     0.00000     0.00000     0.00000     0.00000     0.00000
  -------------------------------------------------------------------------------------
  Total      -0.14043     0.67370    -0.58697     0.15439     0.34124    -0.72719
  in kB      -0.01356     0.06508    -0.05670     0.01491     0.03296    -0.07024
  external pressure =       -0.00 kB  Pullay stress =        0.00 kB


 VOLUME and BASIS-vectors are now :
 -----------------------------------------------------------------------------
  energy-cutoff  :      400.00
  volume of cell :    16586.54
      direct lattice vectors                 reciprocal lattice vectors
    24.920728800  0.000000000  0.000000000     0.040127237 -0.001113897  0.000065925
     0.708440200 25.520980900  0.000000000     0.000000000  0.039183447 -0.000431867
    -0.034866700  0.287438600 26.079410600     0.000000000  0.000000000  0.038344425

  length of vectors
    24.920728800 25.530811848 26.081017884     0.040142749  0.039185827  0.038344425


 FORCES acting on ions
    electron-ion (+dipol)            ewald-force                    non-local-force                 convergence-correction
 -----------------------------------------------------------------------------------------------
   -.800E+01 0.495E+02 0.218E+02   0.884E+01 -.557E+02 -.244E+02   -.912E+00 0.530E+01 0.239E+01   0.582E-06 -.212E-05 -.119E-05
   0.452E+02 -.236E+01 -.301E+02   -.506E+02 0.249E+01 0.337E+02   0.483E+01 -.284E+00 -.322E+01   0.481E-06 0.452E-06 -.185E-06
   0.515E+01 -.339E+02 0.407E+02   -.547E+01 0.374E+02 -.446E+02   0.572E+00 -.337E+01 0.418E+01   0.104E-05 0.214E-06 0.115E-05
   -.415E+02 -.104E+02 -.311E+02   0.453E+02 0.116E+02 0.338E+02   -.415E+01 -.969E+00 -.314E+01   -.141E-05 0.803E-06 -.184E-05
   -.159E+01 -.368E+01 -.136E+01   0.196E+01 0.427E+01 0.149E+01   0.363E+00 0.177E+00 -.176E+00   0.451E-05 0.133E-04 0.232E-05
 -----------------------------------------------------------------------------------------------
   -.705E+00 -.849E+00 -.315E-01   -.711E-14 -.178E-14 -.355E-14   0.705E+00 0.849E+00 0.324E-01   0.521E-05 0.126E-04 0.260E-06


 POSITION                                       TOTAL-FORCE (eV/Angst)
 -----------------------------------------------------------------------------------
     13.01597     11.08348     11.18779        -0.074542     -0.964754     -0.214896
     11.96378     12.09702     12.21076        -0.608014     -0.151190      0.360983
     12.75234     12.75112     10.76970         0.250270      0.138058      0.296749
     13.73138     12.26854     12.26833        -0.296439      0.213551     -0.397545
     12.85918     12.05236     11.61586         0.728724      0.764335     -0.045290
 -----------------------------------------------------------------------------------
    total drift:                                0.000369      0.000054      0.000877


--------------------------------------------------------------------------------------------------------



  FREE ENERGIE OF THE ION-ELECTRON SYSTEM (eV)
  ---------------------------------------------------
  free  energy   TOTEN  =       -23.98427084 eV

  energy  without entropy=      -23.98427084  energy(sigma->0) =      -23.98427084



--------------------------------------------------------------------------------------------------------


    POTLOK:  cpu time   24.9992: real time   25.0584


--------------------------------------------------------------------------------------------------------


     LOOP+:  cpu time  983.3468: real time  986.0284
    4ORBIT:  cpu time    0.0000: real time    0.0000

 total amount of memory used by VASP MPI-rank0  3948450. kBytes
=======================================================================

   base      :      30000. kBytes
   nonlr-proj:       1205. kBytes
   fftplans  :    1389972. kBytes
   grid      :    2488679. kBytes
   one-center:         15. kBytes
   wavefun   :      38579. kBytes

  
  
 General timing and accounting informations for this job:
 ========================================================
  
                  Total CPU time used (sec):     1031.440
                            User time (sec):      994.255
                          System time (sec):       37.185
                         Elapsed time (sec):     1034.651
  
                   Maximum memory used (kb):     5277432.
                   Average memory used (kb):           0.
  
                          Minor page faults:      1167817
                          Major page faults:            0
                 Voluntary context switches:          162
