6.782080000000000553e+01 7.650710000000000122e+00 5.231280000000000285e+01 6.810429999999999495e+01 6.945490000000000386e+00 5.402329999999999899e+01 6.882110000000000127e+01 8.865769999999999484e+00 5.368560000000000088e+01 6.675589999999999691e+01 6.208510000000000417e+00 5.321229999999999905e+01 6.692329999999999757e+01 4.132719999999999949e+00 5.390149999999999864e+01 6.714939999999999998e+01 4.779709999999999681e+00 5.233610000000000184e+01 6.835280000000000200e+01 5.820339999999999847e+00 5.409490000000000265e+01 6.876390000000000668e+01 6.144750000000000156e+00 5.264390000000000214e+01 6.809789999999999566e+01 8.101800000000000779e+00 5.338389999999999702e+01 6.759090000000000487e+01 4.145159999999999734e+00 5.301039999999999708e+01
9.382110000000000127e+01 1.192389999999999972e+01 1.064719999999999942e+02 9.301170000000000471e+01 1.224610000000000021e+01 1.077999999999999972e+02 9.278610000000000468e+01 1.326299999999999990e+01 1.059360000000000070e+02 9.475990000000000180e+01 1.347630000000000017e+01 1.070529999999999973e+02 9.365500000000000114e+01 1.602590000000000003e+01 1.077920000000000016e+02 9.451040000000000418e+01 1.544420000000000037e+01 1.065759999999999934e+02 9.426529999999999632e+01 1.475239999999999974e+01 1.087210000000000036e+02 9.336520000000000152e+01 1.390290000000000070e+01 1.078810000000000002e+02 9.287340000000000373e+01 1.225249999999999950e+01 1.064860000000000042e+02 9.466589999999999350e+01 1.544270000000000032e+01 1.076290000000000049e+02
6.761230000000000473e+01 7.644029999999999880e+00 5.363969999999999771e+01 6.802469999999999573e+01 7.319460000000000299e+00 5.466689999999999827e+01 6.944429999999999836e+01 8.056350000000000122e+00 5.389000000000000057e+01 6.820199999999999818e+01 6.361959999999999837e+00 5.246059999999999945e+01 6.741570000000000107e+01 4.509590000000000209e+00 5.428750000000000142e+01 6.837120000000000175e+01 4.493800000000000239e+00 5.267510000000000048e+01 6.733839999999999293e+01 6.289880000000000138e+00 5.356669999999999732e+01 6.896750000000000114e+01 6.115809999999999746e+00 5.447449999999999903e+01 6.850700000000000500e+01 7.966289999999999871e+00 5.416830000000000211e+01 6.757880000000000109e+01 4.370370000000000310e+00 5.321029999999999660e+01
7.703300000000000125e+01 1.266650000000000063e+02 8.857129999999999370e+01 7.800759999999999650e+01 1.273010000000000019e+02 8.745980000000000132e+01 7.698579999999999757e+01 1.285490000000000066e+02 8.851500000000000057e+01 7.720300000000000296e+01 1.276310000000000002e+02 9.074139999999999873e+01 7.747990000000000066e+01 1.279270000000000067e+02 8.998369999999999891e+01 7.743680000000000518e+01 1.260759999999999934e+02 9.212309999999999377e+01 7.562699999999999534e+01 1.262399999999999949e+02 9.151919999999999789e+01 7.602670000000000528e+01 1.278499999999999943e+02 8.947939999999999827e+01 7.718800000000000239e+01 1.275819999999999936e+02 8.818640000000000612e+01 7.630899999999999750e+01 1.266140000000000043e+02 9.239289999999999736e+01
7.259489999999999554e+01 1.255649999999999977e+02 8.593030000000000257e+01 7.399439999999999884e+01 1.246530000000000058e+02 8.495900000000000318e+01 7.293399999999999750e+01 1.243160000000000025e+02 8.667100000000000648e+01 7.489730000000000132e+01 1.252759999999999962e+02 8.625669999999999504e+01 7.482710000000000150e+01 1.252890000000000015e+02 8.885479999999999734e+01 7.532620000000000005e+01 1.260010000000000048e+02 8.738160000000000593e+01 7.593919999999999959e+01 1.245079999999999956e+02 8.795560000000000400e+01 7.376970000000000027e+01 1.261170000000000044e+02 8.745000000000000284e+01 7.290049999999999386e+01 1.245819999999999936e+02 8.547480000000000189e+01 7.573600000000000421e+01 1.254609999999999985e+02 8.828660000000000707e+01
7.210739999999999839e+01 5.425699999999999967e+00 6.200820000000000221e+01 7.120780000000000598e+01 5.653739999999999988e+00 6.059150000000000347e+01 7.083790000000000475e+01 7.020629999999999704e+00 6.177239999999999753e+01 7.069870000000000232e+01 5.761379999999999946e+00 6.215279999999999916e+01 7.415080000000000382e+01 8.294280000000000541e+00 6.214779999999999660e+01 7.267220000000000368e+01 7.634479999999999933e+00 6.281680000000000064e+01 7.429680000000000462e+01 6.493350000000000399e+00 6.210990000000000322e+01 7.289560000000000173e+01 7.110249999999999737e+00 6.075710000000000122e+01 7.125799999999999557e+01 6.228030000000000399e+00 6.149989999999999668e+01 7.348779999999999291e+01 7.349079999999999835e+00 6.209749999999999659e+01
7.265149999999999864e+01 5.659639999999999560e+00 6.053430000000000177e+01 7.123399999999999466e+01 6.751669999999999838e+00 6.048890000000000100e+01 7.219240000000000634e+01 7.138670000000000293e+00 6.180919999999999703e+01 7.090319999999999823e+01 5.990590000000000082e+00 6.193310000000000315e+01 7.460819999999999652e+01 7.103930000000000078e+00 6.206499999999999773e+01 7.391630000000000678e+01 5.529349999999999987e+00 6.208460000000000178e+01 7.518240000000000123e+01 5.563279999999999781e+00 6.121909999999999741e+01 7.464499999999999602e+01 7.100920000000000343e+00 6.061959999999999837e+01 7.188479999999999848e+01 6.302800000000000402e+00 6.125059999999999860e+01 7.441129999999999711e+01 6.373170000000000002e+00 6.139920000000000044e+01
8.862869999999999493e+01 1.251140000000000043e+02 1.052930000000000064e+02 8.867759999999999820e+01 1.264339999999999975e+02 1.057129999999999939e+02 8.618449999999999989e+01 1.249090000000000060e+02 1.046419999999999959e+02 8.391079999999999472e+01 1.256700000000000017e+02 1.028550000000000040e+02 8.521399999999999864e+01 1.244170000000000016e+02 1.033289999999999935e+02 8.415560000000000684e+01 1.242639999999999958e+02 1.040699999999999932e+02 8.500119999999999720e+01 1.255120000000000005e+02 1.040999999999999943e+02 8.618059999999999832e+01 1.258840000000000003e+02 1.036500000000000057e+02 8.786169999999999902e+01 1.257729999999999961e+02 1.052240000000000038e+02 8.432640000000000668e+01 1.248640000000000043e+02 1.034380000000000024e+02
8.798969999999999914e+01 1.241280000000000001e+02 1.037339999999999947e+02 8.780960000000000321e+01 1.257980000000000018e+02 1.045060000000000002e+02 8.618919999999999959e+01 1.244599999999999937e+02 1.048419999999999987e+02 8.373250000000000171e+01 1.251460000000000008e+02 1.029219999999999970e+02 8.546869999999999834e+01 1.257049999999999983e+02 1.034719999999999942e+02 8.556780000000000541e+01 1.242930000000000064e+02 1.037079999999999984e+02 8.431090000000000373e+01 1.259140000000000015e+02 1.047750000000000057e+02 8.637179999999999325e+01 1.254219999999999970e+02 1.031940000000000026e+02 8.854380000000000450e+01 1.250589999999999975e+02 1.044039999999999964e+02 8.453990000000000293e+01 1.253829999999999956e+02 1.039260000000000019e+02
8.386860000000000070e+01 1.279440000000000026e+02 1.066479999999999961e+02 8.340019999999999811e+01 1.262249999999999943e+02 1.057030000000000030e+02 8.516800000000000637e+01 1.262969999999999970e+02 1.053949999999999960e+02 8.550069999999999482e+01 1.250240000000000009e+02 1.049200000000000017e+02 8.591639999999999588e+01 1.259609999999999985e+02 1.034669999999999987e+02 8.477970000000000539e+01 1.242549999999999955e+02 1.036380000000000052e+02 8.633079999999999643e+01 1.241979999999999933e+02 1.031610000000000014e+02 8.456820000000000448e+01 1.261419999999999959e+02 1.038790000000000049e+02 8.394950000000000045e+01 1.267890000000000015e+02 1.066449999999999960e+02 8.580570000000000164e+01 1.246550000000000011e+02 1.037500000000000000e+02
9.856520000000000437e+01 1.118629999999999924e+01 1.109030000000000058e+02 9.861769999999999925e+01 1.041980000000000040e+01 1.122840000000000060e+02 9.725010000000000332e+01 1.058060000000000045e+01 1.118880000000000052e+02 9.766800000000000637e+01 8.647869999999999280e+00 1.121809999999999974e+02 9.753730000000000189e+01 7.743570000000000064e+00 1.110520000000000067e+02 9.819540000000000646e+01 8.257540000000000546e+00 1.092560000000000002e+02 9.959850000000000136e+01 7.574290000000000411e+00 1.104300000000000068e+02 9.903440000000000509e+01 9.390779999999999461e+00 1.108010000000000019e+02 9.813020000000000209e+01 1.114419999999999966e+01 1.120699999999999932e+02 9.824309999999999832e+01 7.734880000000000422e+00 1.102570000000000050e+02
1.103829999999999956e+02 5.570739999999999981e+01 3.835420000000000051e+00 1.114410000000000025e+02 5.437349999999999994e+01 2.743339999999999890e+00 1.120540000000000020e+02 5.597030000000000172e+01 3.707359999999999989e+00 1.109899999999999949e+02 5.617130000000000223e+01 2.467719999999999914e+00 1.112210000000000036e+02 5.443289999999999651e+01 1.209670000000000023e+00 1.119899999999999949e+02 5.472429999999999950e+01 -5.510000000000000453e-01 1.127360000000000042e+02 5.353269999999999840e+01 4.159160000000000079e-01 1.130979999999999990e+02 5.558910000000000196e+01 1.268380000000000063e+00 1.113029999999999973e+02 5.546390000000000242e+01 3.005329999999999835e+00 1.122849999999999966e+02 5.463219999999999743e+01 5.630560000000000009e-01
8.183969999999999345e+01 1.272510000000000048e+02 1.061029999999999944e+02 8.391849999999999454e+01 1.262710000000000008e+02 1.068100000000000023e+02 8.542119999999999891e+01 1.266239999999999952e+02 1.057489999999999952e+02 8.611469999999999914e+01 1.251359999999999957e+02 1.054849999999999994e+02 8.573099999999999454e+01 1.260639999999999930e+02 1.045000000000000000e+02 8.490850000000000364e+01 1.248649999999999949e+02 1.045709999999999980e+02 8.624429999999999552e+01 1.248589999999999947e+02 1.032930000000000064e+02 8.418899999999999295e+01 1.252489999999999952e+02 1.049519999999999982e+02 8.297369999999999379e+01 1.266479999999999961e+02 1.060720000000000027e+02 8.600560000000000116e+01 1.250879999999999939e+02 1.044890000000000043e+02
6.451640000000000441e+01 1.332119999999999891e+02 1.166560000000000059e+02 6.325110000000000099e+01 1.320869999999999891e+02 1.162620000000000005e+02 6.449790000000000134e+01 1.312709999999999866e+02 1.173960000000000008e+02 6.513909999999999911e+01 1.309850000000000136e+02 1.172950000000000017e+02 6.527450000000000330e+01 1.317949999999999875e+02 1.159860000000000042e+02 6.661329999999999529e+01 1.316220000000000141e+02 1.171749999999999972e+02 6.755559999999999832e+01 1.302220000000000084e+02 1.181460000000000008e+02 6.660410000000000252e+01 1.301250000000000000e+02 1.162990000000000066e+02 6.352389999999999759e+01 1.330339999999999918e+02 1.166860000000000070e+02 6.699660000000000082e+01 1.305800000000000125e+02 1.173040000000000020e+02
1.135319999999999965e+02 5.197820000000000107e+01 1.436629200000000139e+02 1.127390000000000043e+02 5.135790000000000077e+01 1.422151499999999942e+02 1.146569999999999965e+02 5.194930000000000092e+01 1.420855699999999899e+02 1.126760000000000019e+02 5.282670000000000243e+01 1.426262600000000020e+02 1.139080000000000013e+02 5.201259999999999906e+01 1.399259999999999877e+02 1.128629999999999995e+02 5.365449999999999875e+01 1.391419999999999959e+02 1.140819999999999936e+02 5.333489999999999753e+01 1.385699999999999932e+02 1.144150000000000063e+02 5.360090000000000288e+01 1.405525289999999927e+02 1.136159999999999997e+02 5.216299999999999670e+01 1.424388700000000085e+02 1.136470000000000056e+02 5.312729999999999819e+01 1.397350000000000136e+02
1.059429999999999978e+02 6.448120000000000118e+01 8.946510000000000673e+01 1.046700000000000017e+02 6.435399999999999920e+01 8.886090000000000089e+01 1.059159999999999968e+02 6.328699999999999903e+01 8.793229999999999791e+01 1.055990000000000038e+02 6.486509999999999820e+01 9.045699999999999363e+01 1.037349999999999994e+02 6.415349999999999397e+01 9.161499999999999488e+01 1.049009999999999962e+02 6.474450000000000216e+01 9.306189999999999429e+01 1.047090000000000032e+02 6.302199999999999847e+01 9.010509999999999309e+01 1.056809999999999974e+02 6.361189999999999856e+01 9.107819999999999538e+01 1.055900000000000034e+02 6.409029999999999916e+01 8.849049999999999727e+01 1.043559999999999945e+02 6.386050000000000182e+01 9.248579999999999757e+01
6.054809999999999803e+01 7.950679999999999836e+01 7.709839999999999804e+01 6.111939999999999884e+01 7.781990000000000407e+01 7.699020000000000152e+01 6.018760000000000332e+01 7.904619999999999891e+01 7.545269999999999300e+01 5.939770000000000039e+01 7.802949999999999875e+01 7.703149999999999409e+01 5.966989999999999839e+01 7.772280000000000655e+01 7.424169999999999447e+01 6.030769999999999698e+01 7.934189999999999543e+01 7.396729999999999450e+01 5.969319999999999737e+01 7.842470000000000141e+01 7.236180000000000234e+01 6.103329999999999700e+01 7.784069999999999823e+01 7.364100000000000534e+01 6.034989999999999810e+01 7.848120000000000118e+01 7.660460000000000491e+01 6.010210000000000008e+01 7.833520000000000039e+01 7.344249999999999545e+01
9.751699999999999591e+01 7.456529999999999347e+01 2.872500000000000142e+01 9.775929999999999609e+01 7.606409999999999627e+01 2.741319999999999979e+01 9.858960000000000434e+01 7.593410000000000082e+01 2.894099999999999895e+01 9.879049999999999443e+01 7.409839999999999804e+01 2.699380000000000024e+01 1.006560000000000059e+02 7.401030000000000086e+01 2.631550000000000011e+01 1.000000000000000000e+02 7.544070000000000675e+01 2.624470000000000169e+01 1.015859999999999985e+02 7.566400000000000148e+01 2.701269999999999882e+01 9.974960000000000093e+01 7.440389999999999304e+01 2.810500000000000043e+01 9.764339999999999975e+01 7.567529999999999291e+01 2.848910000000000053e+01 1.007139999999999986e+02 7.489350000000000307e+01 2.673989999999999867e+01
4.283059999999999690e+01 1.127860000000000085e+01 6.630400000000000205e+01 4.450600000000000023e+01 1.072959999999999958e+01 6.568869999999999720e+01 4.329419999999999646e+01 1.158709999999999951e+01 6.512199999999999989e+01 4.249090000000000344e+01 9.810760000000000147e+00 6.538379999999999370e+01 4.200430000000000064e+01 1.051929999999999943e+01 6.302770000000000294e+01 4.087270000000000181e+01 9.042510000000000048e+00 6.398859999999999815e+01 4.240460000000000207e+01 8.589890000000000470e+00 6.327770000000000294e+01 4.373279999999999745e+01 9.770739999999999981e+00 6.428340000000000032e+01 4.390409999999999968e+01 1.153739999999999988e+01 6.592959999999999354e+01 4.186899999999999977e+01 9.480959999999999610e+00 6.347650000000000148e+01
4.867770000000000152e+01 9.579250000000000043e+00 6.600459999999999638e+01 5.000730000000000075e+01 9.107900000000000773e+00 6.737479999999999336e+01 5.031360000000000099e+01 1.361640000000000050e+01 6.589140000000000441e+01 5.128759999999999764e+01 1.160420000000000051e+01 6.667740000000000578e+01 5.126830000000000354e+01 1.197930000000000028e+01 6.472599999999999909e+01 5.059810000000000230e+01 1.048290000000000077e+01 6.716660000000000252e+01 4.884559999999999746e+01 1.130550000000000033e+01 6.739619999999999322e+01 4.960520000000000351e+01 1.122320000000000029e+01 6.587890000000000157e+01 4.888210000000000122e+01 8.938340000000000174e+00 6.703509999999999991e+01 5.074589999999999890e+01 1.245309999999999917e+01 6.577819999999999823e+01
9.734799999999999898e+01 7.454380000000000450e+01 2.876630000000000109e+01 9.797090000000000032e+01 7.545300000000000296e+01 2.754439999999999955e+01 9.879919999999999902e+01 7.575820000000000221e+01 2.835210000000000008e+01 9.880979999999999563e+01 7.407170000000000698e+01 2.750840000000000174e+01 1.009950000000000045e+02 7.376069999999999993e+01 2.658879999999999910e+01 9.981959999999999411e+01 7.531850000000000023e+01 2.654469999999999885e+01 1.010529999999999973e+02 7.579049999999999443e+01 2.723649999999999949e+01 9.996750000000000114e+01 7.489579999999999416e+01 2.846300000000000097e+01 9.765670000000000073e+01 7.546479999999999677e+01 2.855659999999999954e+01 1.009129999999999967e+02 7.493529999999999802e+01 2.666890000000000072e+01
