-2.189646031471760125e+03
-2.191775427612074509e+03
-2.188184326990702175e+03
-2.192045604078256019e+03
-2.192132646695932635e+03
-2.199567003049340201e+03
-2.200650642764098848e+03
-2.190500385814676520e+03
-2.189594996870603609e+03
-2.192869362945298690e+03
-2.191306481365456875e+03
-2.201116681909477848e+03
-2.190554269396271138e+03
-2.191855035776981822e+03
-2.200919981603947235e+03
-2.190929132555220349e+03
-2.203305472250032381e+03
-2.195688781948586893e+03
-2.193404294852506155e+03
-2.190418947596967428e+03
-2.192413636833672626e+03
