6.846005991007538816e-01 1.174009457819809032e+00 1.864661405821176787e+00 8.296199825120038895e-02 4.608121985313569091e+00 -1.077462160717903128e+00 -4.584452664764553376e-01 2.540530897818922829e-01 -5.004770473667944364e-01 3.858423979845632124e-02 -1.187659908430007016e+00 6.221512749423997457e-01 -2.389549537060332851e-01 -5.359595080550787483e-01 -3.833629287349897274e-01 -1.914451799674411481e+00 1.613179162302763370e+00 -3.093648407128827493e+00 -4.009041786587164702e-01 -1.262731139004897862e+00 -2.775367560984911997e+00 2.040291368981801690e-01 7.114582420995039236e-01 1.560718729017888107e+00 3.110044179077451898e-01 -6.223078602800718784e+00 -1.752457888945091469e-01 1.691575806559280748e+00 8.486072723952323704e-01 3.958032432624403629e+00
4.145115324341626106e+00 -2.555958597925237719e+00 -1.756921427246171286e+00 -1.770501686734264446e+00 6.155087265320103862e-01 -3.206725790619605831e+00 -5.536120867548918190e-01 -1.595559647992337737e+00 9.795127381021202506e-01 -1.993776972203348929e+00 -8.775872069628652961e-01 -1.720575178668419802e-01 1.494343947072526158e+00 3.713289822379775562e-01 1.548328736125669652e-02 2.459866129010160329e-01 -1.513446165276564281e+00 -1.325473723214069421e+00 1.533869005017529430e+00 6.199733446965074446e-01 -3.311734486080605944e+00 1.772271839985069430e+00 1.516086688441473651e+00 -2.842731703508518670e-01 -5.130750425219544608e-01 3.779989128992980341e+00 3.982584567227852812e+00 -4.360620838259173127e+00 -3.603353555880788317e-01 5.079605471264849292e+00
7.179261097466762553e-01 2.375079984337304495e+00 -3.476861337692989107e+00 -2.087628673106078026e+00 -4.002756158747128978e+00 8.793184079975571166e+00 4.441185848257031665e+00 9.309025835416021577e-01 -1.410114343435966866e+00 -2.926932870741763892e+00 -1.547718973249535557e+00 2.585798103772805057e+00 1.318493280398292944e+00 1.001383571841151232e-01 5.881152141680894702e-02 6.108569886061737897e+00 4.643972165206375902e-01 -2.681155545655375949e+00 1.473059890545467487e+00 -1.921439081625162304e+00 -4.097792881194850523e+00 -2.110417185061291834e-01 1.597687184612103239e+00 -8.378945130778894246e-01 -1.936884316656486416e+00 1.149932925918448534e+00 -1.549716103506181053e+00 -6.896747435998748621e+00 8.537760643517502412e-01 2.615741019398067024e+00
-2.523205260624124535e-01 -2.458443383247225000e+00 3.072972725082081080e+00 -1.906607466125033179e+00 1.374104086647105483e+00 -1.265807155659264049e+00 1.127360283802500751e+00 1.425954294257239408e+00 8.432264672545096706e-01 -2.156745382533412914e-01 9.563559412996414100e-01 -1.567191327495268238e+00 4.167974541639619668e-01 -9.378357180553003047e-01 7.159326304568215393e-01 -2.772099431486454435e+00 9.219981840711991561e-01 3.643629890231620538e-01 9.930364847380565019e-01 -1.625112167281319783e-02 9.576144964011243932e-01 -1.773392532523648368e+00 -5.352501406342428103e-01 -6.041527799946735389e-01 2.680389099739641789e+00 2.631064589817742605e-01 -1.011352768062786511e+00 1.702511069162593760e+00 -9.937385502253107683e-01 -1.505605328427774170e+00
-1.634076062083792968e-01 6.737850470705257777e-01 -2.061445327678145034e+00 -1.587048627338128570e+00 -2.266919218984140005e-01 8.512252726945870318e-01 3.436484318934037718e-01 -1.638703431091852680e+00 -2.897895240614421830e+00 -2.662509698300190575e+00 -4.768333350073821753e-01 -1.328268512581407546e+00 -3.009625623047658127e-01 8.077062627686977248e-01 1.921452142830301302e+00 1.444412759598541429e+00 1.617966608206877099e+00 8.761733057955363169e-01 1.006711977895115462e+00 -2.786643854739728532e+00 -9.454966805120582629e-01 1.449449859640252303e+00 -1.183503514137963064e+00 -5.859508593480109578e-02 2.908719585818188680e+00 1.411633351309217410e+00 4.490092399614482588e+00 -2.439014069271969731e+00 1.801284838942089683e+00 -8.472423250361407199e-01
-8.266243899711706034e-01 3.631269516450268853e+00 -9.482565542955802007e-01 -1.008464596220911114e+00 9.144373403798174982e-01 -9.617543842095084283e-01 -1.466786809689895721e+00 8.442071066501101839e+00 1.076621461336732644e+00 -4.890982848581183262e+00 -4.069813362949969537e+00 2.849067313598141915e+00 -7.549144656810048426e-01 -1.083244212251143646e+00 -7.120664108915465418e-01 9.891649172777640109e-01 -1.509442957323532175e+00 -5.540560134634149314e-01 -2.326029913989526410e+00 1.166969159717490268e+00 9.157337935450307054e-01 2.432909755641855298e+00 1.616985012360821594e+00 4.348030299303796475e+00 6.012192693159043699e+00 -1.049531853391596847e+01 -2.126320796402099589e+00 1.839535658055029499e+00 1.386086971031113668e+00 -3.886998708521551826e+00
-2.821474026502075461e+00 1.221097210650622822e+00 2.933778536318684349e+00 5.044638516803014866e-02 4.616982264650076884e-01 -4.402216457173177555e-01 1.474685856319069011e+00 8.118896022240992272e-01 4.943035196338566584e-01 2.887099743190509660e+00 -8.906766428168966243e-01 -1.456115959357545897e+00 2.082116124628480947e+00 1.778074871721840200e+00 3.797678834425510797e+00 -1.009496945647565980e+00 2.487727119389508079e+00 -2.463847482584514470e+00 1.246786544276310860e+00 1.709759318105786852e+00 4.468470191571700112e-01 -2.621639593336209106e+00 -9.024772873937687567e-01 -1.964743661529675389e+00 -4.240611451540180710e+00 -1.534720760143207352e+00 -2.210314732703415164e+00 2.952087363443630430e+00 -5.142371709625059850e+00 8.626355723572464163e-01
2.638147259703661707e+00 -4.268855999120835243e+00 -1.315589064871365066e+00 -8.975965618592532946e-01 1.737110767218512208e+00 -1.395559172970590289e+00 2.337659734458242156e+00 3.804730342538539922e+00 -2.665540926333784810e+00 -8.400143363875334224e-01 -9.958495803614165753e-01 -7.049094875401914484e-01 3.126025437740148849e+00 -1.655090152756600874e+00 -4.089912192243765787e+00 -6.193628053471543105e+00 -8.330291987369966122e+00 9.023351722258844632e+00 -2.612470061685898237e+00 2.059563331430578903e-01 -1.703766333251758580e-01 1.591739965398128787e+00 -2.053994167256690595e+00 1.906536812204320475e+00 -1.417919956168535833e+00 1.889152296742261594e+00 4.559711605485196273e+00 2.268056469428446409e+00 9.667132147223137295e+00 -5.147712662663488814e+00
1.280639285380067882e+00 1.774435012097596021e+00 1.672950065232478245e+00 -1.852383410191921875e+00 2.286103198275465598e+00 8.651405469522882585e-01 1.100844340442130642e+00 -6.602284417334719491e-01 1.841322934854304205e-01 2.494871958555006319e+00 8.506917173224527451e-01 3.431374559510982358e+00 -7.686123274374159764e-02 3.188972990310281030e+00 -1.210755512972189196e+00 -1.800328234220827772e+00 6.209009473717128635e-01 2.684385314291497071e+00 -7.564616528472324353e-01 1.860781045187345772e-01 2.553804887473126950e+00 3.057744028376899958e+00 -7.659466074594432905e-02 -1.409888343449408499e+00 -2.385307576448008504e+00 -4.194204166928281019e+00 -2.749991953392897148e+00 -1.062757506302373089e+00 -3.976154700488545579e+00 -6.021151754287173752e+00
-3.829486725594004604e-01 -1.412471119632541905e+00 -4.795240975322159760e-01 -3.651105116180654586e-01 1.824910707844087820e+00 2.482908717400774012e+00 -1.508632699806307986e+00 6.190687791075314417e-01 6.716911404828898036e-01 2.679590566453801781e+00 -1.666098074741257706e+00 -1.711995201021724977e+00 -8.136668517202160222e-01 -3.613602950948102688e+00 3.985220513828757055e-02 -1.042803532972656905e-01 5.101204333688997838e-01 -6.336139222697499962e-01 7.115095973182926414e+00 -5.699732979319650283e+00 -5.768595972266056471e+00 4.379784094457304655e-01 1.075867305295124865e+00 1.700911328643405218e+00 1.125418997911134422e+00 -1.210692675205732982e+00 -4.108243028013591314e+00 -8.183444806570269847e+00 9.572630522809575382e+00 7.806608829437982955e+00
-1.110227787893143248e+00 8.057514528735851833e-01 2.391323289855861400e+00 8.174905606623083187e+00 -8.523631916257706109e+00 5.552036563075582798e+00 -3.316102739290652135e+00 5.082674391673903669e-01 4.284524714457411121e-01 2.179002910219866029e-01 1.764172864357547832e+00 -1.123714613484631530e-01 -6.894259944906648840e-01 -3.420619068455567069e-01 5.403230304349173618e-01 -1.043910598663354783e+00 -9.354771935084311707e-01 1.133562350782887806e+00 -4.729836939166615295e+00 -4.087471752343406761e-01 -4.543237363461603145e-02 -1.319994959034804127e+00 -3.103473621561529061e+00 -1.098347027735143033e+00 -4.352728733609108502e+00 6.750346855855084982e+00 -7.172286156812206492e+00 8.169421905925341676e+00 3.484853149731889310e+00 -1.617260686064561970e+00
1.747388752955342683e+00 -1.766696916539623574e+00 -1.620110034245492825e+00 -3.050763277028719078e-01 2.003382305875521574e+00 9.157000606687663025e-01 -1.676025156289630280e-02 -1.290626479325320153e+00 -1.262533369733383815e+00 -1.904388089692754971e+00 4.960627971173904527e+00 -6.136256812742677980e+00 3.396732849625935913e+00 7.627119023048449797e-01 -2.783965227822819077e+00 6.302994100664285337e-01 1.271566067262140054e+00 1.692102368530238321e+00 -1.565039879614126273e-01 2.370800022817114883e+00 1.208243236443565793e+00 -2.700048681733055567e+00 -3.364066826995398163e+00 -2.884940890531651370e+00 6.792346035154643580e-02 -3.400751484199211028e+00 1.024104741456797640e+01 -7.595672371903976483e-01 -1.546946510951906273e+00 6.307132548654779125e-01
4.147718463663480293e+00 -6.894023917616931563e-01 -5.387356312119231938e-02 -3.450926566539236795e+00 2.176902884406199945e+00 -1.275136044296684146e+00 -1.427522153094592516e+00 1.527991616971187794e+00 1.200794081482742692e+00 2.845688009589800060e+00 -1.771597336725982519e+00 3.960743763976227960e+00 8.774209079966469038e-02 3.887670537833130435e+00 -1.286392746243791629e+00 -8.845648215649305479e-01 -1.762195531596880915e+00 -8.184272496168367717e-01 4.403166222759465342e-01 -5.239302923882743768e-01 3.656005896321485427e+00 -2.909812047641723520e+00 2.139050020673459507e+00 1.135340063077612038e+00 1.514319003449907441e+00 -3.565936494169910098e+00 8.262709146793383308e-01 -3.629586523603836046e-01 -1.418553064663304442e+00 -7.345325167680969436e+00
4.516327989862971570e+00 1.196732560905192422e+00 8.200370174391833356e-01 -9.300339619777920896e-01 -8.800517123908031536e-01 -2.418825662736629190e-01 -3.524567646573475432e+00 1.664205691236061657e+00 1.166174997307385830e+00 2.078376917569872528e+00 -1.535476047470299532e+00 2.511343732319360478e-01 -1.194559567177778003e+00 1.236309452294211964e+00 -7.582480040492926010e-01 1.884098484528620832e+00 -4.339709848831654893e-01 7.726550789603372493e-01 -3.682839730902994213e-01 -5.629685376204791591e-01 2.772435680385682000e-01 1.725357636631988045e+00 -2.335434495910271580e-01 2.234347401581218140e+00 -2.027416517415348896e+00 -1.998114115062572083e+00 -7.085022445506273803e-01 -2.159299310936691807e+00 1.546877091160813178e+00 -3.812959621685045875e+00
1.355243912114678428e+00 -1.593191404674715594e-01 -2.514002253207886284e+00 2.923892026781551134e+00 4.050088937729467431e-01 -3.669017479165357920e-01 -1.489071025429368866e+00 1.220266024351935652e+00 -7.946879436339861214e-02 2.925044241047493276e+00 1.422448491962905903e+00 -1.893130513570500106e+00 -1.980885305620831316e+00 1.700122514128318496e+00 -9.425460308581992130e-01 -1.288736718345564913e+00 -7.289494583515763182e-01 2.637308051562448075e+00 1.103232792632271142e+00 -9.122658378923599320e-01 2.627968569979127977e+00 -2.538976974361855987e+00 -1.355557689570419111e-02 -2.507705980999882733e+00 -5.712348457977752147e+00 -3.155931226632693321e+00 5.563130925555667794e+00 4.702605457737312200e+00 2.221752646016309507e-01 -2.524652277602908335e+00
2.562796241659632379e+00 -7.701555036823805045e-01 -1.023659611471895436e+00 -3.777784253583730489e+00 5.864087728588875947e-01 -1.597042866106624937e+00 1.021867038199670841e+00 -1.043811096962788065e+00 -1.608711767346622690e+00 1.873476125205901233e-01 -1.211114490425241330e+00 3.331556407541042653e+00 -5.256109712416706659e-01 8.382532848426718086e-01 8.782134763226595586e-01 -1.625837269854803369e+00 -1.129774241338109331e+00 -1.104620828499659702e+00 1.585003366026325411e+00 5.529034392430005607e-01 -1.684495707776735518e+00 -1.539215203106840457e+00 1.758122543898283485e+00 2.458835630777934378e-01 -1.024976376353761820e+00 -5.357255890701290157e-01 3.921735240699024683e+00 3.136409918578722866e+00 9.548928292137374152e-01 -1.358857906438982299e+00
-4.731829338593053214e-01 -1.634900460669573397e+00 1.950423592756800606e-01 7.376180362205329022e-01 -1.180935547510262862e-01 -1.238586678552401121e+00 8.961278447679944525e-01 -2.986252750717643512e+00 3.694910444178251652e+00 7.329429475338552491e-01 9.495092472813709827e-01 -8.395522062671237906e-01 -1.843033232818566569e+00 2.432087928159448742e-01 -8.888579985564615260e-01 -6.974026370196599878e-01 -1.042818599638427379e+00 -1.575789457131782312e+00 7.182597361204626774e-01 -5.516027180461868795e-01 2.109403656111333181e+00 1.490718691315445321e+00 -1.312527189285554730e-01 -1.462144785392605284e+00 -1.761221803327149171e+00 3.893576002328313468e+00 -5.646701452553382072e-01 1.991732996443232317e-01 1.378626811747850844e+00 5.702448630125143136e-01
-1.052107533329418532e+00 1.407678891476153105e+00 -5.577569110817535147e-01 -1.318581263555745009e+00 -6.672479138984628300e-01 1.316410686665501872e+00 2.735263696248395604e-01 4.877629926053402842e-01 6.354234134021744529e-01 -8.915300948708012596e-01 1.083703771268179628e+00 2.124931526405092086e+00 1.595482103514583638e+00 -4.718965748459377885e+00 -2.098036139608814299e+00 -1.951883002453846050e+00 1.805310672604811151e+00 -8.467449707995098329e-01 -1.305022035693250038e+00 -2.621591205170713756e+00 -5.888838712327255642e-01 2.083953486521477938e+00 9.176140928643701233e-01 -3.671462238519385135e+00 1.702645383602842122e+00 -2.103520868747906558e+00 -2.262031448626380392e+00 8.635166380613858994e-01 4.409255315457607516e+00 5.948150004817867931e+00
8.804529587833209714e-01 -1.051476276029079004e+00 1.794376387020780284e+00 1.988252956604704469e+00 -2.230087546089412065e+00 5.000786291879879553e-01 -7.605725900316273602e-01 2.031476289642605071e+00 -4.659157873063147548e+00 1.881602971593994811e+00 6.923628630304402565e-01 -1.388176301054744322e+00 -5.480830317936348228e-01 -1.968530742533104227e+00 4.047330143809362846e-01 2.045589333171820012e+00 1.911319013057551475e+00 -8.573558630011820503e-01 8.623912661146663217e-01 -4.732206776568328999e-01 -1.415014609356123332e+00 -3.059352253537221955e+00 4.000644562968281304e-01 1.655470470367655711e+00 -2.184617017280728657e+00 3.513408646554572745e-01 1.838986110419909892e+00 -1.105664593625294012e+00 3.367517042034789410e-01 2.126060035097927514e+00
9.777796601619654915e-01 -2.131382013393456898e+00 1.744052952016085900e+00 -3.588215413436433021e-01 -5.445034388324727637e-01 -9.111729646922853698e-01 1.713429876704314347e+00 -3.450202646673304674e+00 -2.520041260812306075e-02 -1.181467045999698096e+00 2.752732903855588109e+00 -1.448974822580906041e+00 -1.268550265848788605e+00 2.359733479675534706e+00 2.774535449089010619e+00 -1.554783131191163292e+00 -4.227790233190106273e-01 7.038779608666163590e-01 6.711721375558511449e-01 -1.789975223687548800e+00 -5.723173265980126614e-03 1.788051215610854783e+00 3.954600626685168763e+00 -3.999824895212708009e-01 6.419066562475221893e-01 4.374454711384058392e+00 -1.032596149734471336e+00 -1.428717561897214772e+00 -5.102679427116623145e+00 -1.398816298146608350e+00
-1.343880098001017709e+00 -4.117617270914525562e+00 2.402627248682979388e+00 -2.540007421172013835e+00 3.363366766968775012e-01 -3.599329521990428660e+00 -9.134424262182856413e-01 -3.727743022885345869e-01 3.777419156904648023e+00 -7.307431114872179334e-01 1.576698547862696254e+00 1.594976213214751359e+00 6.424507531434890950e-01 3.007522306221673603e+00 4.402629376375011838e-01 1.380363643498931259e+00 -1.516908927300419929e+00 -1.646379100259908856e+00 3.035174111630528415e+00 1.295599353204752946e+00 1.561219220000635177e+00 8.298545185617632880e-01 -6.848064416368615515e-01 -2.168141952504055947e+00 5.014772220058292262e+00 3.013459292444220505e+00 -3.215965564814089461e+00 -5.374542190014468979e+00 -2.537509285711946561e+00 8.533114659721016126e-01
