2.822369199999999978e+01 0.000000000000000000e+00 0.000000000000000000e+00 8.023360000000000491e-01 2.890350340000000173e+01 0.000000000000000000e+00 -3.948789999999999939e-02 3.255353999999999748e-01 2.953594209999999975e+01
2.446968460000000078e+01 0.000000000000000000e+00 0.000000000000000000e+00 3.562558000000000114e-01 2.468711090000000041e+01 0.000000000000000000e+00 3.629753000000000007e-01 1.840420999999999863e-01 2.476456840000000170e+01
1.462149430000000017e+01 0.000000000000000000e+00 0.000000000000000000e+00 -1.055525999999999964e-01 1.455546670000000020e+01 0.000000000000000000e+00 5.282300000000000190e-03 -3.156153999999999904e-01 1.435041140000000048e+01
8.366944300000000112e+00 0.000000000000000000e+00 0.000000000000000000e+00 -1.708415000000000072e-01 8.415611300000000128e+00 0.000000000000000000e+00 -1.796798000000000006e-01 -2.017218000000000067e-01 8.605379100000000392e+00
2.418357849999999942e+01 0.000000000000000000e+00 0.000000000000000000e+00 2.053348000000000118e-01 2.453588870000000099e+01 0.000000000000000000e+00 6.531017999999999546e-01 -6.887237999999999971e-01 2.440229039999999827e+01
1.004023740000000053e+01 0.000000000000000000e+00 0.000000000000000000e+00 8.524840000000000195e-02 1.018650339999999943e+01 0.000000000000000000e+00 2.711466000000000154e-01 -2.859358000000000177e-01 1.013103959999999937e+01
6.860851799999999834e+00 0.000000000000000000e+00 0.000000000000000000e+00 -4.952850000000000308e-02 6.829869300000000365e+00 0.000000000000000000e+00 2.478600000000000074e-03 -1.480963999999999892e-01 6.733651199999999726e+00
2.286584099999999964e+01 0.000000000000000000e+00 0.000000000000000000e+00 6.500243999999999467e-01 2.341659930000000145e+01 0.000000000000000000e+00 -3.199169999999999792e-02 2.637373000000000078e-01 2.392897999999999925e+01
6.909224000000000032e+00 0.000000000000000000e+00 0.000000000000000000e+00 1.375389999999999946e-02 6.894212200000000124e+00 0.000000000000000000e+00 1.355109999999999926e-01 6.841579999999999884e-02 6.595125200000000021e+00
1.895302200000000070e+01 0.000000000000000000e+00 0.000000000000000000e+00 2.759383000000000252e-01 1.912142559999999847e+01 0.000000000000000000e+00 2.811428999999999734e-01 1.425500000000000100e-01 1.918142320000000112e+01
2.212500760000000000e+01 0.000000000000000000e+00 0.000000000000000000e+00 6.289641999999999733e-01 2.265792469999999881e+01 0.000000000000000000e+00 -3.095519999999999869e-02 2.551924999999999888e-01 2.315370180000000033e+01
1.033667759999999980e+01 0.000000000000000000e+00 0.000000000000000000e+00 2.057679999999999926e-02 1.031421659999999996e+01 0.000000000000000000e+00 2.027337999999999918e-01 1.023547000000000068e-01 9.866764200000000429e+00
2.403868479999999863e+01 0.000000000000000000e+00 0.000000000000000000e+00 -4.908369000000000204e-01 2.417850879999999947e+01 0.000000000000000000e+00 -5.162297999999999609e-01 -5.795576999999999535e-01 2.472372439999999827e+01
2.565712549999999936e+01 0.000000000000000000e+00 0.000000000000000000e+00 3.735437999999999814e-01 2.588510139999999993e+01 0.000000000000000000e+00 3.805894000000000221e-01 1.929731000000000085e-01 2.596631819999999991e+01
8.674776100000000767e+00 0.000000000000000000e+00 0.000000000000000000e+00 2.466042999999999985e-01 8.883720399999999628e+00 0.000000000000000000e+00 -1.213690000000000081e-02 1.000559000000000032e-01 9.078106899999999868e+00
2.492765440000000154e+01 0.000000000000000000e+00 0.000000000000000000e+00 3.629234000000000071e-01 2.514914699999999925e+01 0.000000000000000000e+00 3.697687000000000057e-01 1.874866000000000033e-01 2.522805599999999870e+01
1.506334969999999984e+01 0.000000000000000000e+00 0.000000000000000000e+00 2.193083000000000116e-01 1.519719510000000007e+01 0.000000000000000000e+00 2.234447999999999990e-01 1.132949000000000039e-01 1.524487689999999951e+01
9.107473399999999941e+00 0.000000000000000000e+00 0.000000000000000000e+00 -6.574689999999999701e-02 9.066346199999999911e+00 0.000000000000000000e+00 3.290200000000000069e-03 -1.965912999999999966e-01 8.938620600000000138e+00
1.286867720000000048e+01 0.000000000000000000e+00 0.000000000000000000e+00 1.873558999999999919e-01 1.298302080000000025e+01 0.000000000000000000e+00 1.908897999999999984e-01 9.678829999999999378e-02 1.302375600000000055e+01
1.365611080000000044e+01 0.000000000000000000e+00 0.000000000000000000e+00 3.882125000000000159e-01 1.398503879999999988e+01 0.000000000000000000e+00 -1.910629999999999967e-02 1.575111999999999901e-01 1.429104620000000025e+01
6.475601199999999835e+00 0.000000000000000000e+00 0.000000000000000000e+00 9.427869999999999306e-02 6.533139700000000438e+00 0.000000000000000000e+00 9.605690000000000062e-02 4.870449999999999779e-02 6.553638499999999922e+00
2.492072879999999913e+01 0.000000000000000000e+00 0.000000000000000000e+00 7.084401999999999644e-01 2.552098090000000141e+01 0.000000000000000000e+00 -3.486670000000000047e-02 2.874385999999999886e-01 2.607941059999999922e+01
2.153841780000000128e+01 0.000000000000000000e+00 0.000000000000000000e+00 1.828757000000000021e-01 2.185219379999999845e+01 0.000000000000000000e+00 5.816666000000000336e-01 -6.133923999999999488e-01 2.173320770000000124e+01
1.801162529999999862e+01 0.000000000000000000e+00 0.000000000000000000e+00 2.622324999999999795e-01 1.817166710000000052e+01 0.000000000000000000e+00 2.671785999999999883e-01 1.354695999999999956e-01 1.822868349999999893e+01
2.382783320000000060e+01 0.000000000000000000e+00 0.000000000000000000e+00 -4.865316000000000085e-01 2.396643080000000126e+01 0.000000000000000000e+00 -5.117017000000000371e-01 -5.744742000000000459e-01 2.450686269999999922e+01
8.061059999999999448e+00 0.000000000000000000e+00 0.000000000000000000e+00 -5.819280000000000286e-02 8.024659200000000325e+00 0.000000000000000000e+00 2.912200000000000205e-03 -1.740037000000000111e-01 7.911608799999999775e+00
6.103675800000000429e+00 0.000000000000000000e+00 0.000000000000000000e+00 -6.510960000000000358e-02 6.320395000000000429e+00 0.000000000000000000e+00 -1.567704000000000042e-01 -1.436988999999999905e-01 6.204048600000000135e+00
1.536736969999999936e+01 0.000000000000000000e+00 0.000000000000000000e+00 -1.109370999999999968e-01 1.529797360000000062e+01 0.000000000000000000e+00 5.551799999999999964e-03 -3.317155999999999993e-01 1.508245750000000029e+01
2.940101239999999905e+01 0.000000000000000000e+00 0.000000000000000000e+00 -2.122458999999999874e-01 2.926824380000000048e+01 0.000000000000000000e+00 1.062169999999999954e-02 -6.346418999999999810e-01 2.885591519999999832e+01
1.389496800000000043e+01 0.000000000000000000e+00 0.000000000000000000e+00 -1.003078000000000025e-01 1.383222199999999980e+01 0.000000000000000000e+00 5.019799999999999610e-03 -2.999327999999999994e-01 1.363735490000000006e+01
