1.476671999999999940e+01 1.292277999999999949e+01 1.234650000000000070e+01 1.348300000000000054e+01 1.372677000000000014e+01 1.333745000000000047e+01 1.488725999999999949e+01 1.464151999999999987e+01 1.279889999999999972e+01 1.499507000000000012e+01 1.330448999999999948e+01 1.406404000000000032e+01 1.457620999999999967e+01 1.364917999999999942e+01 1.315909000000000084e+01
1.163136000000000081e+01 1.163776000000000010e+01 1.068084999999999951e+01 1.276898000000000089e+01 1.127491999999999983e+01 1.205602999999999980e+01 1.311316000000000059e+01 1.258027000000000051e+01 1.100061000000000000e+01 1.315502000000000038e+01 1.088217000000000034e+01 1.034375000000000000e+01 1.264381000000000022e+01 1.161697999999999986e+01 1.103402999999999956e+01
8.271599999999999397e+00 6.968429999999999680e+00 6.852240000000000109e+00 7.278270000000000017e+00 5.634809999999999874e+00 6.078979999999999606e+00 7.203100000000000058e+00 7.170279999999999987e+00 5.446620000000000239e+00 6.546240000000000059e+00 6.900009999999999977e+00 7.163219999999999921e+00 7.309549999999999770e+00 6.652300000000000324e+00 6.395430000000000170e+00
4.468750000000000000e+00 3.383500000000000174e+00 2.914239999999999942e+00 3.763230000000000075e+00 3.015540000000000109e+00 4.508659999999999890e+00 3.196140000000000203e+00 4.543110000000000426e+00 3.700639999999999930e+00 4.851409999999999556e+00 4.413400000000000212e+00 4.296439999999999593e+00 4.044089999999999741e+00 3.842950000000000088e+00 3.822210000000000107e+00
1.245091999999999999e+01 1.111975999999999942e+01 9.783089999999999620e+00 1.156348999999999982e+01 1.125517999999999930e+01 1.138203999999999994e+01 1.315907999999999944e+01 1.203454999999999941e+01 1.110121000000000002e+01 1.300173999999999985e+01 1.028270999999999979e+01 1.131086999999999954e+01 1.255969999999999942e+01 1.115719999999999956e+01 1.086762000000000050e+01
5.145039999999999836e+00 5.007390000000000008e+00 5.521930000000000227e+00 5.121170000000000222e+00 3.526450000000000085e+00 4.452729999999999855e+00 6.177159999999999762e+00 4.885600000000000165e+00 4.149309999999999832e+00 4.408640000000000114e+00 5.031439999999999912e+00 3.914260000000000073e+00 5.212640000000000384e+00 4.640760000000000218e+00 4.516350000000000087e+00
4.541879999999999917e+00 3.006200000000000205e+00 3.089669999999999916e+00 3.038279999999999870e+00 2.195720000000000116e+00 2.576649999999999885e+00 3.200870000000000104e+00 4.015520000000000422e+00 2.348430000000000017e+00 2.891980000000000217e+00 3.213169999999999860e+00 3.974050000000000082e+00 3.436119999999999841e+00 3.128579999999999917e+00 3.000589999999999868e+00
1.279509000000000007e+01 1.074632000000000076e+01 1.081620999999999988e+01 1.175423999999999936e+01 1.212078999999999951e+01 1.095801999999999943e+01 1.105802000000000085e+01 1.047078999999999915e+01 1.116897999999999946e+01 1.154913999999999952e+01 1.099109999999999943e+01 9.570209999999999440e+00 1.180414000000000030e+01 1.104995000000000083e+01 1.066588999999999920e+01
4.459200000000000053e+00 3.177709999999999813e+00 2.357569999999999943e+00 3.660190000000000055e+00 4.086509999999999643e+00 3.615250000000000075e+00 3.332800000000000207e+00 2.308790000000000120e+00 3.535359999999999836e+00 2.677999999999999936e+00 3.376840000000000064e+00 2.211790000000000145e+00 3.545529999999999848e+00 3.251380000000000159e+00 2.936350000000000016e+00
1.052670999999999957e+01 8.508919999999999817e+00 7.873499999999999943e+00 8.821509999999999962e+00 8.810259999999999536e+00 8.064209999999999212e+00 9.965159999999999130e+00 1.006198000000000015e+01 8.710010000000000474e+00 9.839949999999999974e+00 8.553940000000000765e+00 9.542999999999999261e+00 9.800950000000000273e+00 8.996679999999999566e+00 8.542450000000000543e+00
1.210591999999999935e+01 9.930790000000000006e+00 1.064192000000000071e+01 1.121624000000000088e+01 1.145243999999999929e+01 1.113029000000000046e+01 1.044891999999999932e+01 1.017991999999999919e+01 1.009767000000000081e+01 1.188072999999999979e+01 1.116930999999999941e+01 9.413750000000000284e+00 1.141976999999999975e+01 1.070529999999999937e+01 1.030802000000000085e+01
5.997519999999999740e+00 5.683169999999999611e+00 4.617560000000000109e+00 4.455899999999999750e+00 5.276600000000000179e+00 3.809919999999999973e+00 4.955309999999999881e+00 4.336299999999999599e+00 5.276670000000000194e+00 5.786299999999999777e+00 4.116380000000000372e+00 3.831109999999999793e+00 5.299760000000000026e+00 4.861060000000000159e+00 4.392870000000000275e+00
1.189939999999999998e+01 1.052663000000000082e+01 1.008785999999999916e+01 1.194740999999999964e+01 1.036316000000000059e+01 1.184717000000000020e+01 1.059989999999999988e+01 1.130424999999999969e+01 1.102608999999999995e+01 1.219942999999999955e+01 1.194131999999999927e+01 1.115471999999999930e+01 1.162936999999999976e+01 1.103950999999999993e+01 1.099695999999999962e+01
1.314926999999999957e+01 1.188785999999999987e+01 1.047551999999999950e+01 1.228566999999999965e+01 1.209013999999999989e+01 1.202511999999999937e+01 1.364236999999999966e+01 1.320485000000000042e+01 1.162199000000000026e+01 1.401620999999999917e+01 1.161181999999999981e+01 1.211252999999999957e+01 1.326018999999999970e+01 1.216662999999999961e+01 1.156823999999999941e+01
4.945330000000000226e+00 4.697940000000000005e+00 4.932760000000000034e+00 5.147020000000000373e+00 4.017820000000000391e+00 3.244559999999999889e+00 3.707289999999999974e+00 4.830840000000000245e+00 3.636420000000000208e+00 4.074860000000000149e+00 3.195440000000000058e+00 4.282540000000000013e+00 4.479510000000000325e+00 4.198380000000000223e+00 4.049089999999999634e+00
1.207496000000000080e+01 1.172305000000000064e+01 1.057882000000000033e+01 1.246179000000000059e+01 1.162246999999999986e+01 1.225566000000000066e+01 1.334915999999999947e+01 1.277360000000000007e+01 1.109863000000000000e+01 1.367902999999999913e+01 1.114035999999999937e+01 1.100494999999999912e+01 1.288477999999999923e+01 1.183304000000000045e+01 1.123789000000000016e+01
6.683889999999999887e+00 7.175769999999999982e+00 6.862650000000000361e+00 8.093389999999999418e+00 6.769260000000000055e+00 7.778340000000000032e+00 8.287280000000000868e+00 8.134900000000000020e+00 6.578529999999999767e+00 8.100500000000000256e+00 6.470220000000000304e+00 5.964380000000000237e+00 7.785599999999999632e+00 7.151159999999999961e+00 6.788479999999999848e+00
4.301770000000000316e+00 5.230809999999999960e+00 3.981910000000000061e+00 4.528080000000000105e+00 3.839119999999999866e+00 4.999430000000000263e+00 5.544209999999999638e+00 3.927970000000000184e+00 3.527249999999999996e+00 3.839290000000000092e+00 3.533729999999999816e+00 3.396250000000000213e+00 4.556040000000000312e+00 4.150509999999999700e+00 3.983950000000000102e+00
6.815879999999999939e+00 5.933390000000000164e+00 6.832690000000000374e+00 7.425189999999999735e+00 5.473160000000000025e+00 5.318939999999999557e+00 6.797509999999999941e+00 7.178160000000000096e+00 5.515640000000000320e+00 5.603819999999999801e+00 5.863640000000000185e+00 5.534299999999999997e+00 6.649779999999999802e+00 6.104449999999999932e+00 5.801239999999999952e+00
6.135010000000000296e+00 6.208330000000000126e+00 5.904420000000000002e+00 7.665630000000000166e+00 5.777300000000000324e+00 6.676459999999999617e+00 6.945339999999999847e+00 7.310480000000000089e+00 7.153319999999999901e+00 7.567140000000000200e+00 7.195319999999999716e+00 5.556630000000000180e+00 7.037259999999999849e+00 6.597929999999999851e+00 6.378250000000000419e+00
3.184070000000000178e+00 2.775189999999999824e+00 1.912800000000000056e+00 2.336949999999999861e+00 2.984939999999999927e+00 3.405330000000000190e+00 3.691359999999999975e+00 4.129889999999999617e+00 3.023239999999999927e+00 4.127729999999999677e+00 2.443099999999999827e+00 3.387669999999999959e+00 3.351750000000000007e+00 3.069259999999999877e+00 2.914730000000000043e+00
1.301596999999999937e+01 1.108347999999999978e+01 1.118778999999999968e+01 1.196377999999999986e+01 1.209702000000000055e+01 1.221076000000000050e+01 1.275234000000000023e+01 1.275112000000000023e+01 1.076970000000000027e+01 1.373137999999999970e+01 1.226853999999999978e+01 1.226833000000000062e+01 1.285918000000000028e+01 1.205236000000000018e+01 1.161585999999999963e+01
1.127396000000000065e+01 1.004992999999999981e+01 1.077569000000000088e+01 1.103523000000000032e+01 8.882410000000000139e+00 9.479100000000000747e+00 1.208792000000000044e+01 1.030077999999999960e+01 9.154870000000000729e+00 1.037607000000000035e+01 1.056220000000000070e+01 9.363419999999999632e+00 1.117877000000000010e+01 9.937549999999999883e+00 9.682090000000000529e+00
9.667130000000000223e+00 8.132260000000000488e+00 7.137950000000000017e+00 8.239959999999999951e+00 8.423460000000000392e+00 8.120340000000000558e+00 9.635490000000000776e+00 9.605320000000000746e+00 8.303580000000000183e+00 9.781180000000000874e+00 7.971919999999999895e+00 8.946099999999999497e+00 9.304539999999999367e+00 8.551249999999999574e+00 8.116860000000000852e+00
1.174460999999999977e+01 1.034994999999999976e+01 9.997989999999999711e+00 1.236344000000000065e+01 1.165123999999999960e+01 1.092553000000000019e+01 1.157318000000000069e+01 1.029470000000000063e+01 1.182843000000000089e+01 1.053626000000000040e+01 1.145309999999999917e+01 1.082616999999999940e+01 1.152898000000000067e+01 1.094261999999999979e+01 1.091305999999999976e+01
3.474569999999999936e+00 3.249600000000000044e+00 2.644249999999999989e+00 3.450670000000000126e+00 4.491900000000000226e+00 3.959060000000000024e+00 4.942029999999999923e+00 3.990499999999999936e+00 3.110899999999999999e+00 4.360560000000000436e+00 2.943529999999999980e+00 4.320700000000000429e+00 4.023640000000000327e+00 3.670009999999999994e+00 3.529749999999999943e+00
3.876320000000000210e+00 2.485489999999999977e+00 2.341800000000000104e+00 2.250770000000000159e+00 3.059800000000000075e+00 1.936800000000000077e+00 3.199629999999999974e+00 3.828510000000000080e+00 3.312520000000000131e+00 2.528459999999999930e+00 2.147800000000000153e+00 3.474540000000000184e+00 2.971830000000000194e+00 2.892549999999999955e+00 2.759160000000000057e+00
8.209929999999999950e+00 6.740829999999999878e+00 5.786439999999999806e+00 6.648859999999999992e+00 6.827639999999999709e+00 6.498050000000000104e+00 7.861530000000000129e+00 8.003000000000000114e+00 7.090370000000000061e+00 7.962240000000000428e+00 6.299559999999999604e+00 7.561810000000000365e+00 7.691699999999999982e+00 7.005239999999999689e+00 6.713949999999999640e+00
1.522578000000000031e+01 1.415117000000000047e+01 1.349615999999999971e+01 1.499475999999999942e+01 1.237453999999999965e+01 1.313198000000000043e+01 1.489828999999999937e+01 1.350418999999999947e+01 1.176257999999999981e+01 1.363719999999999999e+01 1.356026999999999916e+01 1.311251000000000033e+01 1.471133999999999986e+01 1.338025999999999982e+01 1.284787999999999997e+01
6.593600000000000350e+00 7.003149999999999764e+00 5.279919999999999725e+00 6.338049999999999962e+00 6.500869999999999926e+00 6.931390000000000384e+00 8.005959999999999965e+00 6.492449999999999832e+00 6.236679999999999779e+00 6.894379999999999953e+00 5.218600000000000350e+00 5.855620000000000047e+00 6.947300000000000253e+00 6.332849999999999646e+00 6.075009999999999799e+00
