 vasp.5.4.4.18Apr17-6-g9f103f2a35 (build Jul 12 2018 13:43:46) complex           
 executed on             LinuxGNU date 2019.06.24  12:57:16
 running on    1 total cores
 distrk:  each k-point on    1 cores,    1 groups
 distr:  one band on NCORES_PER_BAND=   1 cores,    1 groups


--------------------------------------------------------------------------------------------------------


 INCAR:
 POTCAR:    PAW_PBE H 15Jun2001                   
 POTCAR:    PAW_PBE C 08Apr2002                   
 POTCAR:    PAW_PBE H 15Jun2001                   
   VRHFIN =H: ultrasoft test                                                    
   LEXCH  = PE                                                                  
   EATOM  =    12.4884 eV,    0.9179 Ry                                         
                                                                                
   TITEL  = PAW_PBE H 15Jun2001                                                 
   LULTRA =        F    use ultrasoft PP ?                                      
   IUNSCR =        0    unscreen: 0-lin 1-nonlin 2-no                           
   RPACOR =    0.000    partial core radius                                     
   POMASS =    1.000; ZVAL   =    1.000    mass and valenz                      
   RCORE  =    1.100    outmost cutoff radius                                   
   RWIGS  =    0.700; RWIGS  =    0.370    wigner-seitz radius (au A)           
   ENMAX  =  250.000; ENMIN  =  200.000 eV                                      
   RCLOC  =    0.701    cutoff for local pot                                    
   LCOR   =        T    correct aug charges                                     
   LPAW   =        T    paw PP                                                  
   EAUG   =  400.000                                                            
   RMAX   =    1.123    core radius for proj-oper                               
   RAUG   =    1.200    factor for augmentation sphere                          
   RDEP   =    1.112    radius for radial grids                                 
   RDEPT  =    0.926    core radius for aug-charge                              
                                                                                
   Atomic configuration                                                         
    2 entries                                                                   
     n  l   j            E        occ.                                          
     1  0  0.50        -6.4927   1.0000                                         
     2  1  0.50        -3.4015   0.0000                                         
   Description                                                                  
     l       E           TYP  RCUT    TYP  RCUT                                 
     0     -6.4927494     23  1.100                                             
     0      6.8029130     23  1.100                                             
     1     -4.0817478     23  1.100                                             
  local pseudopotential read in
  atomic valenz-charges read in
  non local Contribution for L=           0  read in
    real space projection operators read in
  non local Contribution for L=           0  read in
    real space projection operators read in
  non local Contribution for L=           1  read in
    real space projection operators read in
    PAW grid and wavefunctions read in

   number of l-projection  operators is LMAX  =           3
   number of lm-projection operators is LMMAX =           5

 POTCAR:    PAW_PBE C 08Apr2002                   
   VRHFIN =C: s2p2                                                              
   LEXCH  = PE                                                                  
   EATOM  =   147.1560 eV,   10.8157 Ry                                         
                                                                                
   TITEL  = PAW_PBE C 08Apr2002                                                 
   LULTRA =        F    use ultrasoft PP ?                                      
   IUNSCR =        1    unscreen: 0-lin 1-nonlin 2-no                           
   RPACOR =    1.200    partial core radius                                     
   POMASS =   12.011; ZVAL   =    4.000    mass and valenz                      
   RCORE  =    1.500    outmost cutoff radius                                   
   RWIGS  =    1.630; RWIGS  =    0.863    wigner-seitz radius (au A)           
   ENMAX  =  400.000; ENMIN  =  300.000 eV                                      
   ICORE  =        2    local potential                                         
   LCOR   =        T    correct aug charges                                     
   LPAW   =        T    paw PP                                                  
   EAUG   =  644.873                                                            
   DEXC   =    0.000                                                            
   RMAX   =    1.529    core radius for proj-oper                               
   RAUG   =    1.300    factor for augmentation sphere                          
   RDEP   =    1.501    radius for radial grids                                 
   RDEPT  =    1.300    core radius for aug-charge                              
                                                                                
   Atomic configuration                                                         
    4 entries                                                                   
     n  l   j            E        occ.                                          
     1  0  0.50      -273.3789   2.0000                                         
     2  0  0.50       -13.7508   2.0000                                         
     2  1  0.50        -5.2854   2.0000                                         
     3  2  1.50        -5.4423   0.0000                                         
   Description                                                                  
     l       E           TYP  RCUT    TYP  RCUT                                 
     0    -13.7508458     23  1.200                                             
     0     -8.2022199     23  1.200                                             
     1     -5.2854383     23  1.500                                             
     1     34.0145650     23  1.500                                             
     2     -5.4423304      7  1.500                                             
  local pseudopotential read in
  partial core-charges read in
  partial kinetic energy density read in
  atomic valenz-charges read in
  non local Contribution for L=           0  read in
    real space projection operators read in
  non local Contribution for L=           0  read in
    real space projection operators read in
  non local Contribution for L=           1  read in
    real space projection operators read in
  non local Contribution for L=           1  read in
    real space projection operators read in
    PAW grid and wavefunctions read in

   number of l-projection  operators is LMAX  =           4
   number of lm-projection operators is LMMAX =           8


 ----------------------------------------------------------------------------- 
|                                                                             |
|  ADVICE TO THIS USER RUNNING 'VASP/VAMP'   (HEAR YOUR MASTER'S VOICE ...):  |
|                                                                             |
|      You have a (more or less) 'small supercell' and for smaller cells      |
|      it is recommended  to use the reciprocal-space projection scheme!      |
|      The real space optimization is not  efficient for small cells and it   |
|      is also less accurate ...                                              |
|      Therefore set LREAL=.FALSE. in the  INCAR file                         |
|                                                                             |
 ----------------------------------------------------------------------------- 

 Optimization of the real space projectors (new method)

 maximal supplied QI-value         = 34.20
 optimisation between [QCUT,QGAM] = [  9.92, 20.18] = [ 27.55,114.04] Ry 
 Optimized for a Real-space Cutoff    1.34 Angstroem

   l    n(q)    QCUT    max X(q) W(low)/X(q) W(high)/X(q)  e(spline) 
   0      8     9.919    19.460    0.16E-03    0.20E-03    0.36E-06
   0      8     9.919    12.209    0.16E-03    0.20E-03    0.35E-06
   1      8     9.919     4.655    0.19E-03    0.46E-03    0.40E-06
 Optimization of the real space projectors (new method)

 maximal supplied QI-value         = 25.13
 optimisation between [QCUT,QGAM] = [ 10.05, 20.36] = [ 28.30,116.06] Ry 
 Optimized for a Real-space Cutoff    1.51 Angstroem

   l    n(q)    QCUT    max X(q) W(low)/X(q) W(high)/X(q)  e(spline) 
   0      9    10.053   115.676    0.19E-03    0.21E-03    0.38E-06
   0      9    10.053    87.132    0.19E-03    0.21E-03    0.38E-06
   1      9    10.053     4.429    0.87E-04    0.11E-03    0.39E-06
   1      9    10.053     2.733    0.59E-04    0.62E-04    0.43E-06
  PAW_PBE H 15Jun2001                   :
 energy of atom  1       EATOM=  -12.4884
 kinetic energy error for atom=    0.0098 (will be added to EATOM!!)
  PAW_PBE C 08Apr2002                   :
 energy of atom  2       EATOM= -147.1560
 kinetic energy error for atom=    0.0288 (will be added to EATOM!!)


 POSCAR: POSCAR file written by OVITO            
  positions in cartesian coordinates
  No initial velocities read in
 exchange correlation table for  LEXCH =        8
   RHO(1)=    0.500       N(1)  =     2000
   RHO(2)=  100.500       N(2)  =     4000



--------------------------------------------------------------------------------------------------------


 ion  position               nearest neighbor table
   1  0.358  0.444  0.399-   5 1.07
   2  0.526  0.562  0.573-   5 1.09
   3  0.576  0.526  0.321-   5 1.09
   4  0.552  0.331  0.471-   5 1.05
   5  0.503  0.468  0.447-   4 1.05   1 1.07   3 1.09   2 1.09


IMPORTANT INFORMATION: All symmetrisations will be switched off!
NOSYMM: (Re-)initialisation of all symmetry stuff for point group C_1.




Automatic generation of k-mesh.
 generate k-points for:    1    1    1
Space group operators:
 irot       det(A)        alpha          n_x          n_y          n_z        tau_x        tau_y        tau_z
    1     1.000000     0.000000     1.000000     0.000000     0.000000     0.000000     0.000000     0.000000
 
 Subroutine IBZKPT returns following result:
 ===========================================
 
 Found      1 irreducible k-points:
 
 Following reciprocal coordinates:
            Coordinates               Weight
  0.000000  0.000000  0.000000      1.000000
 
 Following cartesian coordinates:
            Coordinates               Weight
  0.000000  0.000000  0.000000      1.000000
 


--------------------------------------------------------------------------------------------------------




 Dimension of arrays:
   k-points           NKPTS =      1   k-points in BZ     NKDIM =      1   number of bands    NBANDS=      8
   number of dos      NEDOS =    301   number of ions     NIONS =      5
   non local maximal  LDIM  =      4   non local SUM 2l+1 LMDIM =      8
   total plane-waves  NPLWV = 110592
   max r-space proj   IRMAX =   4742   max aug-charges    IRDMAX=   4050
   dimension x,y,z NGX =    48 NGY =   48 NGZ =   48
   dimension x,y,z NGXF=    96 NGYF=   96 NGZF=   96
   support grid    NGXF=    96 NGYF=   96 NGZF=   96
   ions per type =               4   1
   NGX,Y,Z   is equivalent  to a cutoff of  11.34, 11.28, 11.72 a.u.
   NGXF,Y,Z  is equivalent  to a cutoff of  22.68, 22.55, 23.43 a.u.

 SYSTEM =  unknown system                          
 POSCAR =  POSCAR file written by OVITO            

 Startparameter for this run:
   NWRITE =      2    write-flag & timer
   PREC   = a         normal or accurate (medium, high low for compatibility)
   ISTART =      0    job   : 0-new  1-cont  2-samecut
   ICHARG =      2    charge: 1-file 2-atom 10-const
   ISPIN  =      1    spin polarized calculation?
   LNONCOLLINEAR =      F non collinear calculations
   LSORBIT =      F    spin-orbit coupling
   INIWAV =      1    electr: 0-lowe 1-rand  2-diag
   LASPH  =      F    aspherical Exc in radial PAW
   METAGGA=      F    non-selfconsistent MetaGGA calc.

 Electronic Relaxation 1
   ENCUT  =  400.0 eV  29.40 Ry    5.42 a.u.  11.48 11.54 11.11*2*pi/ulx,y,z
   ENINI  =  400.0     initial cutoff
   ENAUG  =  644.9 eV  augmentation charge cutoff
   NELM   =    120;   NELMIN=  4; NELMDL= -5     # of ELM steps 
   EDIFF  = 0.1E-05   stopping-criterion for ELM
   LREAL  =      T    real-space projection
   NLSPLINE    = F    spline interpolate recip. space projectors
   LCOMPAT=      F    compatible to vasp.4.4
   GGA_COMPAT  = T    GGA compatible to vasp.4.4-vasp.4.6
   LMAXPAW     = -100 max onsite density
   LMAXMIX     =    2 max onsite mixed and CHGCAR
   VOSKOWN=      0    Vosko Wilk Nusair interpolation
   ROPT   =   -0.00025  -0.00025
 Ionic relaxation
   EDIFFG = 0.1E-04   stopping-criterion for IOM
   NSW    =      0    number of steps for IOM
   NBLOCK =      1;   KBLOCK =      1    inner block; outer block 
   IBRION =     -1    ionic relax: 0-MD 1-quasi-New 2-CG
   NFREE  =      0    steps in history (QN), initial steepest desc. (CG)
   ISIF   =      2    stress and relaxation
   IWAVPR =     10    prediction:  0-non 1-charg 2-wave 3-comb
   ISYM   =      0    0-nonsym 1-usesym 2-fastsym
   LCORR  =      T    Harris-Foulkes like correction to forces

   POTIM  = 0.5000    time-step for ionic-motion
   TEIN   =    0.0    initial temperature
   TEBEG  =    0.0;   TEEND  =   0.0 temperature during run
   SMASS  =  -3.00    Nose mass-parameter (am)
   estimated Nose-frequenzy (Omega)   =  0.10E-29 period in steps =****** mass=  -0.113E-26a.u.
   SCALEE = 1.0000    scale energy and forces
   NPACO  =    256;   APACO  = 16.0  distance and # of slots for P.C.
   PSTRESS=    0.0 pullay stress

  Mass of Ions in am
   POMASS =   1.00 12.01
  Ionic Valenz
   ZVAL   =   1.00  4.00
  Atomic Wigner-Seitz radii
   RWIGS  =  -1.00 -1.00
  virtual crystal weights 
   VCA    =   1.00  1.00
   NELECT =       8.0000    total number of electrons
   NUPDOWN=      -1.0000    fix difference up-down

 DOS related values:
   EMIN   =  10.00;   EMAX   =-10.00  energy-range for DOS
   EFERMI =   0.00
   ISMEAR =     0;   SIGMA  =   0.05  broadening in eV -4-tet -1-fermi 0-gaus

 Electronic relaxation 2 (details)
   IALGO  =     38    algorithm
   LDIAG  =      T    sub-space diagonalisation (order eigenvalues)
   LSUBROT=      F    optimize rotation matrix (better conditioning)
   TURBO    =      0    0=normal 1=particle mesh
   IRESTART =      0    0=no restart 2=restart with 2 vectors
   NREBOOT  =      0    no. of reboots
   NMIN     =      0    reboot dimension
   EREF     =   0.00    reference energy to select bands
   IMIX   =      4    mixing-type and parameters
     AMIX     =   0.40;   BMIX     =  1.00
     AMIX_MAG =   1.60;   BMIX_MAG =  1.00
     AMIN     =   0.10
     WC   =   100.;   INIMIX=   1;  MIXPRE=   1;  MAXMIX= -45

 Intra band minimization:
   WEIMIN = 0.0000     energy-eigenvalue tresh-hold
   EBREAK =  0.31E-07  absolut break condition
   DEPER  =   0.30     relativ break condition  

   TIME   =   0.40     timestep for ELM

  volume/ion in A,a.u.               =      67.78       457.39
  Fermi-wavevector in a.u.,A,eV,Ry     =   0.469624  0.887461  3.000723  0.220547
  Thomas-Fermi vector in A             =   1.461266

 Write flags
   LWAVE        =      F    write WAVECAR
   LDOWNSAMPLE  =      F    k-point downsampling of WAVECAR
   LCHARG       =      F    write CHGCAR
   LVTOT        =      F    write LOCPOT, total local potential
   LVHAR        =      F    write LOCPOT, Hartree potential only
   LELF         =      F    write electronic localiz. function (ELF)
   LORBIT       =      0    0 simple, 1 ext, 2 COOP (PROOUT), +10 PAW based schemes


 Dipole corrections
   LMONO  =      F    monopole corrections only (constant potential shift)
   LDIPOL =      F    correct potential (dipole corrections)
   IDIPOL =      0    1-x, 2-y, 3-z, 4-all directions 
   EPSILON=  1.0000000 bulk dielectric constant

 Exchange correlation treatment:
   GGA     =    --    GGA type
   LEXCH   =     8    internal setting for exchange type
   VOSKOWN=      0    Vosko Wilk Nusair interpolation
   LHFCALC =     F    Hartree Fock is set to
   LHFONE  =     F    Hartree Fock one center treatment
   AEXX    =    0.0000 exact exchange contribution

 Linear response parameters
   LEPSILON=     F    determine dielectric tensor
   LRPA    =     F    only Hartree local field effects (RPA)
   LNABLA  =     F    use nabla operator in PAW spheres
   LVEL    =     F    velocity operator in full k-point grid
   LINTERFAST=   F  fast interpolation
   KINTER  =     0    interpolate to denser k-point grid
   CSHIFT  =0.1000    complex shift for real part using Kramers Kronig
   OMEGAMAX=  -1.0    maximum frequency
   DEG_THRESHOLD= 0.2000000E-02 threshold for treating states as degnerate
   RTIME   =   -0.100 relaxation time in fs
  (WPLASMAI=    0.000 imaginary part of plasma frequency in eV, 0.658/RTIME)
   DFIELD  = 0.0000000 0.0000000 0.0000000 field for delta impulse in time

 Orbital magnetization related:
   ORBITALMAG=     F  switch on orbital magnetization
   LCHIMAG   =     F  perturbation theory with respect to B field
   DQ        =  0.001000  dq finite difference perturbation B field
   LLRAUG    =     F  two centre corrections for induced B field



--------------------------------------------------------------------------------------------------------


 Static calculation
 charge density and potential will be updated during run
 non-spin polarized calculation
 Variant of blocked Davidson
 Davidson routine will perform the subspace rotation
 perform sub-space diagonalisation
    after iterative eigenvector-optimisation
 modified Broyden-mixing scheme, WC =      100.0
 initial mixing is a Kerker type mixing with AMIX =  0.4000 and BMIX =      1.0000
 Hartree-type preconditioning will be used
 using additional bands            4
 real space projection scheme for non local part
 use partial core corrections
 calculate Harris-corrections to forces   (improved forces if not selfconsistent)
 use gradient corrections 
 use of overlap-Matrix (Vanderbilt PP)
 Gauss-broadening in eV      SIGMA  =   0.05


--------------------------------------------------------------------------------------------------------


  energy-cutoff  :      400.00
  volume of cell :      338.89
      direct lattice vectors                 reciprocal lattice vectors
     7.037638700  0.000000000  0.000000000     0.142093114  0.003954937  0.003764274
    -0.196871200  7.073195500  0.000000000    -0.000000000  0.141378815  0.001546768
    -0.178282000 -0.074483700  6.808012000     0.000000000 -0.000000000  0.146885758

  length of vectors
     7.037638700  7.075934769  6.810753239     0.142197976  0.141387276  0.146885758



 k-points in units of 2pi/SCALE and weight: read from INCAR                         
   0.00000000  0.00000000  0.00000000       1.000

 k-points in reciprocal lattice and weights: read from INCAR                         
   0.00000000  0.00000000  0.00000000       1.000

 position of ions in fractional coordinates (direct lattice) 
   0.35820039  0.44416970  0.39851883
   0.52608293  0.56233667  0.57342749
   0.57586964  0.52624325  0.32094260
   0.55152635  0.33065636  0.47085275
   0.50342786  0.46779103  0.44669000

 position of ions in cartesian coordinates  (Angst):
   2.36239200  3.11201600  2.71312100
   3.48944190  3.93480620  3.90390120
   3.89194200  3.69831640  2.18498110
   3.73240190  2.30372620  3.20557120
   3.37121200  3.27550630  3.04107090



--------------------------------------------------------------------------------------------------------


 k-point  1 :   0.0000 0.0000 0.0000  plane waves:    6151

 maximum and minimum number of plane-waves per node :      6151     6151

 maximum number of plane-waves:      6151
 maximum index in each direction: 
   IXMAX=   11   IYMAX=   11   IZMAX=   11
   IXMIN=  -11   IYMIN=  -11   IZMIN=  -11


 serial   3D FFT for wavefunctions
 parallel 3D FFT for charge:
    minimum data exchange during FFTs selected (reduces bandwidth)


 total amount of memory used by VASP MPI-rank0   117565. kBytes
=======================================================================

   base      :      30000. kBytes
   nonlr-proj:       1281. kBytes
   fftplans  :      30736. kBytes
   grid      :      54743. kBytes
   one-center:         15. kBytes
   wavefun   :        790. kBytes

     INWAV:  cpu time    0.0000: real time    0.0000
 Broyden mixing: mesh for mixing (old mesh)
   NGX = 23   NGY = 23   NGZ = 23
  (NGX  = 96   NGY  = 96   NGZ  = 96)
  gives a total of  12167 points

 initial charge density was supplied:
 charge density of overlapping atoms calculated
 number of electron       8.0000000 magnetization 
 keeping initial charge density in first step


--------------------------------------------------------------------------------------------------------


 Maximum index for non-local projection operator         4547
 Maximum index for augmentation-charges         3728 (set IRDMAX)


--------------------------------------------------------------------------------------------------------


 First call to EWALD:  gamma=   0.254
 Maximum number of real-space cells 3x 3x 3
 Maximum number of reciprocal cells 3x 3x 3

    FEWALD:  cpu time    0.0007: real time    0.0007


--------------------------------------- Iteration      1(   1)  ---------------------------------------


    POTLOK:  cpu time    0.5511: real time    0.5526
    SETDIJ:  cpu time    0.0062: real time    0.0063
     EDDAV:  cpu time    0.1406: real time    0.1409
       DOS:  cpu time    0.0001: real time    0.0001
    --------------------------------------------
      LOOP:  cpu time    0.6980: real time    0.6999

 eigenvalue-minimisations  :    16
 total energy-change (2. order) : 0.3686076E+02  (-0.2400064E+03)
 number of electron       8.0000000 magnetization 
 augmentation part        8.0000000 magnetization 

 Free energy of the ion-electron system (eV)
  ---------------------------------------------------
  alpha Z        PSCENC =         0.71482917
  Ewald energy   TEWEN  =        79.35949865
  -Hartree energ DENC   =      -195.89526992
  -exchange      EXHF   =         0.00000000
  -V(xc)+E(xc)   XCENC  =        22.13298275
  PAW double counting   =       117.05815612     -117.66307307
  entropy T*S    EENTRO =        -0.00000000
  eigenvalues    EBANDS =       -65.88811910
  atomic energy  EATOM  =       197.04175453
  Solvation  Ediel_sol  =         0.00000000
  ---------------------------------------------------
  free energy    TOTEN  =        36.86075914 eV

  energy without entropy =       36.86075914  energy(sigma->0) =       36.86075914


--------------------------------------------------------------------------------------------------------




--------------------------------------- Iteration      1(   2)  ---------------------------------------


     EDDAV:  cpu time    0.1335: real time    0.1341
       DOS:  cpu time    0.0001: real time    0.0001
    --------------------------------------------
      LOOP:  cpu time    0.1336: real time    0.1341

 eigenvalue-minimisations  :    16
 total energy-change (2. order) :-0.5488412E+02  (-0.5488412E+02)
 number of electron       8.0000000 magnetization 
 augmentation part        8.0000000 magnetization 

 Free energy of the ion-electron system (eV)
  ---------------------------------------------------
  alpha Z        PSCENC =         0.71482917
  Ewald energy   TEWEN  =        79.35949865
  -Hartree energ DENC   =      -195.89526992
  -exchange      EXHF   =         0.00000000
  -V(xc)+E(xc)   XCENC  =        22.13298275
  PAW double counting   =       117.05815612     -117.66307307
  entropy T*S    EENTRO =        -0.00000000
  eigenvalues    EBANDS =      -120.77224086
  atomic energy  EATOM  =       197.04175453
  Solvation  Ediel_sol  =         0.00000000
  ---------------------------------------------------
  free energy    TOTEN  =       -18.02336262 eV

  energy without entropy =      -18.02336262  energy(sigma->0) =      -18.02336262


--------------------------------------------------------------------------------------------------------




--------------------------------------- Iteration      1(   3)  ---------------------------------------


     EDDAV:  cpu time    0.1320: real time    0.1323
       DOS:  cpu time    0.0001: real time    0.0001
    --------------------------------------------
      LOOP:  cpu time    0.1320: real time    0.1324

 eigenvalue-minimisations  :    16
 total energy-change (2. order) :-0.9314649E+01  (-0.9314649E+01)
 number of electron       8.0000000 magnetization 
 augmentation part        8.0000000 magnetization 

 Free energy of the ion-electron system (eV)
  ---------------------------------------------------
  alpha Z        PSCENC =         0.71482917
  Ewald energy   TEWEN  =        79.35949865
  -Hartree energ DENC   =      -195.89526992
  -exchange      EXHF   =         0.00000000
  -V(xc)+E(xc)   XCENC  =        22.13298275
  PAW double counting   =       117.05815612     -117.66307307
  entropy T*S    EENTRO =        -0.00000000
  eigenvalues    EBANDS =      -130.08689028
  atomic energy  EATOM  =       197.04175453
  Solvation  Ediel_sol  =         0.00000000
  ---------------------------------------------------
  free energy    TOTEN  =       -27.33801204 eV

  energy without entropy =      -27.33801204  energy(sigma->0) =      -27.33801204


--------------------------------------------------------------------------------------------------------




--------------------------------------- Iteration      1(   4)  ---------------------------------------


     EDDAV:  cpu time    0.2311: real time    0.2317
       DOS:  cpu time    0.0001: real time    0.0001
    --------------------------------------------
      LOOP:  cpu time    0.2312: real time    0.2317

 eigenvalue-minimisations  :    32
 total energy-change (2. order) :-0.4315751E+00  (-0.4315751E+00)
 number of electron       8.0000000 magnetization 
 augmentation part        8.0000000 magnetization 

 Free energy of the ion-electron system (eV)
  ---------------------------------------------------
  alpha Z        PSCENC =         0.71482917
  Ewald energy   TEWEN  =        79.35949865
  -Hartree energ DENC   =      -195.89526992
  -exchange      EXHF   =         0.00000000
  -V(xc)+E(xc)   XCENC  =        22.13298275
  PAW double counting   =       117.05815612     -117.66307307
  entropy T*S    EENTRO =        -0.00000000
  eigenvalues    EBANDS =      -130.51846542
  atomic energy  EATOM  =       197.04175453
  Solvation  Ediel_sol  =         0.00000000
  ---------------------------------------------------
  free energy    TOTEN  =       -27.76958718 eV

  energy without entropy =      -27.76958718  energy(sigma->0) =      -27.76958718


--------------------------------------------------------------------------------------------------------




--------------------------------------- Iteration      1(   5)  ---------------------------------------


     EDDAV:  cpu time    0.2369: real time    0.2374
       DOS:  cpu time    0.0001: real time    0.0001
    CHARGE:  cpu time    0.0342: real time    0.0343
    MIXING:  cpu time    0.0117: real time    0.0117
    --------------------------------------------
      LOOP:  cpu time    0.2829: real time    0.2836

 eigenvalue-minimisations  :    32
 total energy-change (2. order) :-0.1603090E-03  (-0.1603089E-03)
 number of electron       8.0000000 magnetization 
 augmentation part        0.2335497 magnetization 

 Broyden mixing:
  rms(total) = 0.91300E+00    rms(broyden)= 0.91278E+00
  rms(prec ) = 0.15897E+01
  weight for this iteration     100.00

 Free energy of the ion-electron system (eV)
  ---------------------------------------------------
  alpha Z        PSCENC =         0.71482917
  Ewald energy   TEWEN  =        79.35949865
  -Hartree energ DENC   =      -195.89526992
  -exchange      EXHF   =         0.00000000
  -V(xc)+E(xc)   XCENC  =        22.13298275
  PAW double counting   =       117.05815612     -117.66307307
  entropy T*S    EENTRO =        -0.00000000
  eigenvalues    EBANDS =      -130.51862573
  atomic energy  EATOM  =       197.04175453
  Solvation  Ediel_sol  =         0.00000000
  ---------------------------------------------------
  free energy    TOTEN  =       -27.76974749 eV

  energy without entropy =      -27.76974749  energy(sigma->0) =      -27.76974749


--------------------------------------------------------------------------------------------------------




--------------------------------------- Iteration      1(   6)  ---------------------------------------


    POTLOK:  cpu time    0.5843: real time    0.5857
    SETDIJ:  cpu time    0.0064: real time    0.0064
     EDDAV:  cpu time    0.1420: real time    0.1423
       DOS:  cpu time    0.0001: real time    0.0001
    CHARGE:  cpu time    0.0311: real time    0.0311
    MIXING:  cpu time    0.0148: real time    0.0148
    --------------------------------------------
      LOOP:  cpu time    0.7786: real time    0.7805

 eigenvalue-minimisations  :    16
 total energy-change (2. order) : 0.3170067E+01  (-0.9288343E+00)
 number of electron       8.0000000 magnetization 
 augmentation part        0.2043809 magnetization 

 Broyden mixing:
  rms(total) = 0.44827E+00    rms(broyden)= 0.44819E+00
  rms(prec ) = 0.67468E+00
  weight for this iteration     100.00

 eigenvalues of (default mixing * dielectric matrix)
  average eigenvalue GAMMA=   1.2448
  1.2448

 Free energy of the ion-electron system (eV)
  ---------------------------------------------------
  alpha Z        PSCENC =         0.71482917
  Ewald energy   TEWEN  =        79.35949865
  -Hartree energ DENC   =      -216.46783078
  -exchange      EXHF   =         0.00000000
  -V(xc)+E(xc)   XCENC  =        23.39040077
  PAW double counting   =       246.10610449     -246.89838926
  entropy T*S    EENTRO =        -0.00000000
  eigenvalues    EBANDS =      -107.84604806
  atomic energy  EATOM  =       197.04175453
  Solvation  Ediel_sol  =         0.00000000
  ---------------------------------------------------
  free energy    TOTEN  =       -24.59968047 eV

  energy without entropy =      -24.59968047  energy(sigma->0) =      -24.59968047


--------------------------------------------------------------------------------------------------------




--------------------------------------- Iteration      1(   7)  ---------------------------------------


    POTLOK:  cpu time    0.6340: real time    0.6355
    SETDIJ:  cpu time    0.0091: real time    0.0091
     EDDAV:  cpu time    0.2522: real time    0.2528
       DOS:  cpu time    0.0001: real time    0.0001
    CHARGE:  cpu time    0.0272: real time    0.0272
    MIXING:  cpu time    0.0123: real time    0.0123
    --------------------------------------------
      LOOP:  cpu time    0.9348: real time    0.9371

 eigenvalue-minimisations  :    32
 total energy-change (2. order) : 0.5397734E+00  (-0.1031476E+00)
 number of electron       8.0000000 magnetization 
 augmentation part        0.1948860 magnetization 

 Broyden mixing:
  rms(total) = 0.24095E+00    rms(broyden)= 0.24090E+00
  rms(prec ) = 0.33275E+00
  weight for this iteration     100.00

 eigenvalues of (default mixing * dielectric matrix)
  average eigenvalue GAMMA=   1.8441
  1.3036  2.3846

 Free energy of the ion-electron system (eV)
  ---------------------------------------------------
  alpha Z        PSCENC =         0.71482917
  Ewald energy   TEWEN  =        79.35949865
  -Hartree energ DENC   =      -227.61553857
  -exchange      EXHF   =         0.00000000
  -V(xc)+E(xc)   XCENC  =        24.23433868
  PAW double counting   =       382.00925503     -382.84048802
  entropy T*S    EENTRO =        -0.00000000
  eigenvalues    EBANDS =       -96.96355655
  atomic energy  EATOM  =       197.04175453
  Solvation  Ediel_sol  =         0.00000000
  ---------------------------------------------------
  free energy    TOTEN  =       -24.05990708 eV

  energy without entropy =      -24.05990708  energy(sigma->0) =      -24.05990708


--------------------------------------------------------------------------------------------------------




--------------------------------------- Iteration      1(   8)  ---------------------------------------


    POTLOK:  cpu time    0.5484: real time    0.5497
    SETDIJ:  cpu time    0.0063: real time    0.0063
     EDDAV:  cpu time    0.2387: real time    0.2392
       DOS:  cpu time    0.0001: real time    0.0001
    CHARGE:  cpu time    0.0263: real time    0.0263
    MIXING:  cpu time    0.0124: real time    0.0125
    --------------------------------------------
      LOOP:  cpu time    0.8322: real time    0.8342

 eigenvalue-minimisations  :    32
 total energy-change (2. order) : 0.1634337E+00  (-0.2044495E-01)
 number of electron       8.0000000 magnetization 
 augmentation part        0.1923583 magnetization 

 Broyden mixing:
  rms(total) = 0.41476E-01    rms(broyden)= 0.41458E-01
  rms(prec ) = 0.72081E-01
  weight for this iteration     100.00

 eigenvalues of (default mixing * dielectric matrix)
  average eigenvalue GAMMA=   1.4099
  2.2632  1.3096  0.6569

 Free energy of the ion-electron system (eV)
  ---------------------------------------------------
  alpha Z        PSCENC =         0.71482917
  Ewald energy   TEWEN  =        79.35949865
  -Hartree energ DENC   =      -234.84428482
  -exchange      EXHF   =         0.00000000
  -V(xc)+E(xc)   XCENC  =        24.90748852
  PAW double counting   =       526.49473554     -527.30397332
  entropy T*S    EENTRO =        -0.00000000
  eigenvalues    EBANDS =       -90.26652168
  atomic energy  EATOM  =       197.04175453
  Solvation  Ediel_sol  =         0.00000000
  ---------------------------------------------------
  free energy    TOTEN  =       -23.89647342 eV

  energy without entropy =      -23.89647342  energy(sigma->0) =      -23.89647342


--------------------------------------------------------------------------------------------------------




--------------------------------------- Iteration      1(   9)  ---------------------------------------


    POTLOK:  cpu time    0.5303: real time    0.5316
    SETDIJ:  cpu time    0.0063: real time    0.0063
     EDDAV:  cpu time    0.1414: real time    0.1418
       DOS:  cpu time    0.0001: real time    0.0001
    CHARGE:  cpu time    0.0261: real time    0.0262
    MIXING:  cpu time    0.0134: real time    0.0135
    --------------------------------------------
      LOOP:  cpu time    0.7177: real time    0.7194

 eigenvalue-minimisations  :    16
 total energy-change (2. order) :-0.1805319E-02  (-0.1973311E-03)
 number of electron       8.0000000 magnetization 
 augmentation part        0.1920530 magnetization 

 Broyden mixing:
  rms(total) = 0.23102E-01    rms(broyden)= 0.23101E-01
  rms(prec ) = 0.52462E-01
  weight for this iteration     100.00

 eigenvalues of (default mixing * dielectric matrix)
  average eigenvalue GAMMA=   1.8379
  1.1352  1.1352  2.5405  2.5405

 Free energy of the ion-electron system (eV)
  ---------------------------------------------------
  alpha Z        PSCENC =         0.71482917
  Ewald energy   TEWEN  =        79.35949865
  -Hartree energ DENC   =      -235.14130939
  -exchange      EXHF   =         0.00000000
  -V(xc)+E(xc)   XCENC  =        24.90417931
  PAW double counting   =       513.35145885     -514.16153896
  entropy T*S    EENTRO =        -0.00000000
  eigenvalues    EBANDS =       -89.96715090
  atomic energy  EATOM  =       197.04175453
  Solvation  Ediel_sol  =         0.00000000
  ---------------------------------------------------
  free energy    TOTEN  =       -23.89827873 eV

  energy without entropy =      -23.89827873  energy(sigma->0) =      -23.89827873


--------------------------------------------------------------------------------------------------------




--------------------------------------- Iteration      1(  10)  ---------------------------------------


    POTLOK:  cpu time    0.5399: real time    0.5411
    SETDIJ:  cpu time    0.0062: real time    0.0062
     EDDAV:  cpu time    0.1455: real time    0.1459
       DOS:  cpu time    0.0001: real time    0.0001
    CHARGE:  cpu time    0.0332: real time    0.0333
    MIXING:  cpu time    0.0140: real time    0.0140
    --------------------------------------------
      LOOP:  cpu time    0.7389: real time    0.7406

 eigenvalue-minimisations  :    16
 total energy-change (2. order) :-0.3411847E-02  (-0.3798137E-03)
 number of electron       8.0000000 magnetization 
 augmentation part        0.1917416 magnetization 

 Broyden mixing:
  rms(total) = 0.76317E-02    rms(broyden)= 0.76310E-02
  rms(prec ) = 0.14432E-01
  weight for this iteration     100.00

 eigenvalues of (default mixing * dielectric matrix)
  average eigenvalue GAMMA=   1.8098
  3.2447  2.3708  1.0742  1.0742  1.2850

 Free energy of the ion-electron system (eV)
  ---------------------------------------------------
  alpha Z        PSCENC =         0.71482917
  Ewald energy   TEWEN  =        79.35949865
  -Hartree energ DENC   =      -236.74988169
  -exchange      EXHF   =         0.00000000
  -V(xc)+E(xc)   XCENC  =        24.97998457
  PAW double counting   =       496.33816159     -497.14325178
  entropy T*S    EENTRO =        -0.00000000
  eigenvalues    EBANDS =       -88.44278563
  atomic energy  EATOM  =       197.04175453
  Solvation  Ediel_sol  =         0.00000000
  ---------------------------------------------------
  free energy    TOTEN  =       -23.90169058 eV

  energy without entropy =      -23.90169058  energy(sigma->0) =      -23.90169058


--------------------------------------------------------------------------------------------------------




--------------------------------------- Iteration      1(  11)  ---------------------------------------


    POTLOK:  cpu time    0.6111: real time    0.6129
    SETDIJ:  cpu time    0.0076: real time    0.0076
     EDDAV:  cpu time    0.1597: real time    0.1601
       DOS:  cpu time    0.0001: real time    0.0001
    CHARGE:  cpu time    0.0389: real time    0.0390
    MIXING:  cpu time    0.0165: real time    0.0166
    --------------------------------------------
      LOOP:  cpu time    0.8339: real time    0.8363

 eigenvalue-minimisations  :    16
 total energy-change (2. order) :-0.2871960E-02  (-0.7346234E-04)
 number of electron       8.0000000 magnetization 
 augmentation part        0.1914963 magnetization 

 Broyden mixing:
  rms(total) = 0.44005E-02    rms(broyden)= 0.44001E-02
  rms(prec ) = 0.84787E-02
  weight for this iteration     100.00

 eigenvalues of (default mixing * dielectric matrix)
  average eigenvalue GAMMA=   2.0912
  3.9935  2.9885  2.2482  1.2611  1.0279  1.0279

 Free energy of the ion-electron system (eV)
  ---------------------------------------------------
  alpha Z        PSCENC =         0.71482917
  Ewald energy   TEWEN  =        79.35949865
  -Hartree energ DENC   =      -237.13352524
  -exchange      EXHF   =         0.00000000
  -V(xc)+E(xc)   XCENC  =        24.99789751
  PAW double counting   =       498.40818047     -499.21431246
  entropy T*S    EENTRO =        -0.00000000
  eigenvalues    EBANDS =       -88.07888517
  atomic energy  EATOM  =       197.04175453
  Solvation  Ediel_sol  =         0.00000000
  ---------------------------------------------------
  free energy    TOTEN  =       -23.90456254 eV

  energy without entropy =      -23.90456254  energy(sigma->0) =      -23.90456254


--------------------------------------------------------------------------------------------------------




--------------------------------------- Iteration      1(  12)  ---------------------------------------


    POTLOK:  cpu time    0.5816: real time    0.5832
    SETDIJ:  cpu time    0.0062: real time    0.0062
     EDDAV:  cpu time    0.1367: real time    0.1370
       DOS:  cpu time    0.0001: real time    0.0001
    CHARGE:  cpu time    0.0251: real time    0.0252
    MIXING:  cpu time    0.0135: real time    0.0135
    --------------------------------------------
      LOOP:  cpu time    0.7633: real time    0.7653

 eigenvalue-minimisations  :    16
 total energy-change (2. order) :-0.2929990E-02  (-0.3186917E-04)
 number of electron       8.0000000 magnetization 
 augmentation part        0.1915809 magnetization 

 Broyden mixing:
  rms(total) = 0.15126E-02    rms(broyden)= 0.15126E-02
  rms(prec ) = 0.26160E-02
  weight for this iteration     100.00

 eigenvalues of (default mixing * dielectric matrix)
  average eigenvalue GAMMA=   2.0043
  4.3006  2.4390  2.4390  1.0479  1.0479  1.4617  1.2940

 Free energy of the ion-electron system (eV)
  ---------------------------------------------------
  alpha Z        PSCENC =         0.71482917
  Ewald energy   TEWEN  =        79.35949865
  -Hartree energ DENC   =      -237.02867160
  -exchange      EXHF   =         0.00000000
  -V(xc)+E(xc)   XCENC  =        24.98488911
  PAW double counting   =       499.50125225     -500.30745988
  entropy T*S    EENTRO =        -0.00000000
  eigenvalues    EBANDS =       -88.17358476
  atomic energy  EATOM  =       197.04175453
  Solvation  Ediel_sol  =         0.00000000
  ---------------------------------------------------
  free energy    TOTEN  =       -23.90749253 eV

  energy without entropy =      -23.90749253  energy(sigma->0) =      -23.90749253


--------------------------------------------------------------------------------------------------------




--------------------------------------- Iteration      1(  13)  ---------------------------------------


    POTLOK:  cpu time    0.5461: real time    0.5474
    SETDIJ:  cpu time    0.0064: real time    0.0064
     EDDAV:  cpu time    0.2563: real time    0.2569
       DOS:  cpu time    0.0001: real time    0.0001
    CHARGE:  cpu time    0.0302: real time    0.0303
    MIXING:  cpu time    0.0139: real time    0.0140
    --------------------------------------------
      LOOP:  cpu time    0.8531: real time    0.8551

 eigenvalue-minimisations  :    32
 total energy-change (2. order) :-0.5401048E-03  (-0.5472508E-05)
 number of electron       8.0000000 magnetization 
 augmentation part        0.1915602 magnetization 

 Broyden mixing:
  rms(total) = 0.12157E-02    rms(broyden)= 0.12155E-02
  rms(prec ) = 0.18649E-02
  weight for this iteration     100.00

 eigenvalues of (default mixing * dielectric matrix)
  average eigenvalue GAMMA=   2.1138
  4.8526  3.2154  2.1958  2.1958  1.2916  1.0270  1.0270  1.1049

 Free energy of the ion-electron system (eV)
  ---------------------------------------------------
  alpha Z        PSCENC =         0.71482917
  Ewald energy   TEWEN  =        79.35949865
  -Hartree energ DENC   =      -237.09770485
  -exchange      EXHF   =         0.00000000
  -V(xc)+E(xc)   XCENC  =        24.99005917
  PAW double counting   =       500.03123044     -500.83705797
  entropy T*S    EENTRO =        -0.00000000
  eigenvalues    EBANDS =       -88.11064177
  atomic energy  EATOM  =       197.04175453
  Solvation  Ediel_sol  =         0.00000000
  ---------------------------------------------------
  free energy    TOTEN  =       -23.90803264 eV

  energy without entropy =      -23.90803264  energy(sigma->0) =      -23.90803264


--------------------------------------------------------------------------------------------------------




--------------------------------------- Iteration      1(  14)  ---------------------------------------


    POTLOK:  cpu time    0.6443: real time    0.6459
    SETDIJ:  cpu time    0.0079: real time    0.0079
     EDDAV:  cpu time    0.1648: real time    0.1652
       DOS:  cpu time    0.0001: real time    0.0001
    CHARGE:  cpu time    0.0326: real time    0.0327
    MIXING:  cpu time    0.0173: real time    0.0173
    --------------------------------------------
      LOOP:  cpu time    0.8670: real time    0.8691

 eigenvalue-minimisations  :    16
 total energy-change (2. order) :-0.3612481E-03  (-0.2974550E-05)
 number of electron       8.0000000 magnetization 
 augmentation part        0.1915673 magnetization 

 Broyden mixing:
  rms(total) = 0.28107E-03    rms(broyden)= 0.28103E-03
  rms(prec ) = 0.45972E-03
  weight for this iteration     100.00

 eigenvalues of (default mixing * dielectric matrix)
  average eigenvalue GAMMA=   2.1759
  5.0398  3.7185  2.3883  2.2549  1.7951  1.3008  0.9781  1.0538  1.0538

 Free energy of the ion-electron system (eV)
  ---------------------------------------------------
  alpha Z        PSCENC =         0.71482917
  Ewald energy   TEWEN  =        79.35949865
  -Hartree energ DENC   =      -237.05840175
  -exchange      EXHF   =         0.00000000
  -V(xc)+E(xc)   XCENC  =        24.98599150
  PAW double counting   =       499.44519524     -500.25114339
  entropy T*S    EENTRO =        -0.00000000
  eigenvalues    EBANDS =       -88.14611784
  atomic energy  EATOM  =       197.04175453
  Solvation  Ediel_sol  =         0.00000000
  ---------------------------------------------------
  free energy    TOTEN  =       -23.90839388 eV

  energy without entropy =      -23.90839388  energy(sigma->0) =      -23.90839388


--------------------------------------------------------------------------------------------------------




--------------------------------------- Iteration      1(  15)  ---------------------------------------


    POTLOK:  cpu time    0.6075: real time    0.6090
    SETDIJ:  cpu time    0.0068: real time    0.0068
     EDDAV:  cpu time    0.2175: real time    0.2180
       DOS:  cpu time    0.0001: real time    0.0001
    CHARGE:  cpu time    0.0286: real time    0.0286
    MIXING:  cpu time    0.0166: real time    0.0166
    --------------------------------------------
      LOOP:  cpu time    0.8771: real time    0.8791

 eigenvalue-minimisations  :    24
 total energy-change (2. order) :-0.8393383E-04  (-0.6969006E-06)
 number of electron       8.0000000 magnetization 
 augmentation part        0.1915645 magnetization 

 Broyden mixing:
  rms(total) = 0.84430E-04    rms(broyden)= 0.84416E-04
  rms(prec ) = 0.13189E-03
  weight for this iteration     100.00

 eigenvalues of (default mixing * dielectric matrix)
  average eigenvalue GAMMA=   2.1528
  5.2545  3.7884  2.7490  2.2932  1.8851  1.3543  1.1884  1.0264  1.0264  0.9621

 Free energy of the ion-electron system (eV)
  ---------------------------------------------------
  alpha Z        PSCENC =         0.71482917
  Ewald energy   TEWEN  =        79.35949865
  -Hartree energ DENC   =      -237.06073355
  -exchange      EXHF   =         0.00000000
  -V(xc)+E(xc)   XCENC  =        24.98634214
  PAW double counting   =       499.45030362     -500.25620505
  entropy T*S    EENTRO =        -0.00000000
  eigenvalues    EBANDS =       -88.14426733
  atomic energy  EATOM  =       197.04175453
  Solvation  Ediel_sol  =         0.00000000
  ---------------------------------------------------
  free energy    TOTEN  =       -23.90847782 eV

  energy without entropy =      -23.90847782  energy(sigma->0) =      -23.90847782


--------------------------------------------------------------------------------------------------------




--------------------------------------- Iteration      1(  16)  ---------------------------------------


    POTLOK:  cpu time    0.5656: real time    0.5670
    SETDIJ:  cpu time    0.0068: real time    0.0068
     EDDAV:  cpu time    0.2769: real time    0.2776
       DOS:  cpu time    0.0001: real time    0.0001
    CHARGE:  cpu time    0.0341: real time    0.0341
    MIXING:  cpu time    0.0161: real time    0.0162
    --------------------------------------------
      LOOP:  cpu time    0.8996: real time    0.9017

 eigenvalue-minimisations  :    32
 total energy-change (2. order) :-0.7813461E-05  (-0.2976873E-07)
 number of electron       8.0000000 magnetization 
 augmentation part        0.1915638 magnetization 

 Broyden mixing:
  rms(total) = 0.42818E-04    rms(broyden)= 0.42816E-04
  rms(prec ) = 0.66367E-04
  weight for this iteration     100.00

 eigenvalues of (default mixing * dielectric matrix)
  average eigenvalue GAMMA=   2.1950
  5.3064  3.9457  2.8209  2.5100  2.0733  2.0733  1.2975  1.0486  1.0486  0.9846
  1.0361

 Free energy of the ion-electron system (eV)
  ---------------------------------------------------
  alpha Z        PSCENC =         0.71482917
  Ewald energy   TEWEN  =        79.35949865
  -Hartree energ DENC   =      -237.06061331
  -exchange      EXHF   =         0.00000000
  -V(xc)+E(xc)   XCENC  =        24.98630993
  PAW double counting   =       499.40439727     -500.21029979
  entropy T*S    EENTRO =        -0.00000000
  eigenvalues    EBANDS =       -88.14436208
  atomic energy  EATOM  =       197.04175453
  Solvation  Ediel_sol  =         0.00000000
  ---------------------------------------------------
  free energy    TOTEN  =       -23.90848563 eV

  energy without entropy =      -23.90848563  energy(sigma->0) =      -23.90848563


--------------------------------------------------------------------------------------------------------




--------------------------------------- Iteration      1(  17)  ---------------------------------------


    POTLOK:  cpu time    0.6125: real time    0.6139
    SETDIJ:  cpu time    0.0069: real time    0.0069
     EDDAV:  cpu time    0.1630: real time    0.1634
       DOS:  cpu time    0.0001: real time    0.0001
    CHARGE:  cpu time    0.0340: real time    0.0341
    MIXING:  cpu time    0.0202: real time    0.0203
    --------------------------------------------
      LOOP:  cpu time    0.8367: real time    0.8386

 eigenvalue-minimisations  :    16
 total energy-change (2. order) :-0.3044537E-05  (-0.1928448E-07)
 number of electron       8.0000000 magnetization 
 augmentation part        0.1915631 magnetization 

 Broyden mixing:
  rms(total) = 0.26901E-04    rms(broyden)= 0.26896E-04
  rms(prec ) = 0.38977E-04
  weight for this iteration     100.00

 eigenvalues of (default mixing * dielectric matrix)
  average eigenvalue GAMMA=   2.1366
  5.3193  4.0120  2.9753  2.5611  2.3198  1.7588  1.3958  1.2563  1.0347  1.0347
  0.9995  0.9724

 Free energy of the ion-electron system (eV)
  ---------------------------------------------------
  alpha Z        PSCENC =         0.71482917
  Ewald energy   TEWEN  =        79.35949865
  -Hartree energ DENC   =      -237.06067329
  -exchange      EXHF   =         0.00000000
  -V(xc)+E(xc)   XCENC  =        24.98628741
  PAW double counting   =       499.40595266     -500.21187316
  entropy T*S    EENTRO =        -0.00000000
  eigenvalues    EBANDS =       -88.14426464
  atomic energy  EATOM  =       197.04175453
  Solvation  Ediel_sol  =         0.00000000
  ---------------------------------------------------
  free energy    TOTEN  =       -23.90848868 eV

  energy without entropy =      -23.90848868  energy(sigma->0) =      -23.90848868


--------------------------------------------------------------------------------------------------------




--------------------------------------- Iteration      1(  18)  ---------------------------------------


    POTLOK:  cpu time    0.6286: real time    0.6301
    SETDIJ:  cpu time    0.0069: real time    0.0069
     EDDAV:  cpu time    0.2788: real time    0.2795
       DOS:  cpu time    0.0001: real time    0.0001
    --------------------------------------------
      LOOP:  cpu time    0.9143: real time    0.9165

 eigenvalue-minimisations  :    32
 total energy-change (2. order) :-0.2515013E-06  (-0.1708468E-08)
 number of electron       8.0000000 magnetization 
 augmentation part        0.1915631 magnetization 

 Free energy of the ion-electron system (eV)
  ---------------------------------------------------
  alpha Z        PSCENC =         0.71482917
  Ewald energy   TEWEN  =        79.35949865
  -Hartree energ DENC   =      -237.06036463
  -exchange      EXHF   =         0.00000000
  -V(xc)+E(xc)   XCENC  =        24.98628457
  PAW double counting   =       499.42034024     -500.22625741
  entropy T*S    EENTRO =        -0.00000000
  eigenvalues    EBANDS =       -88.14457405
  atomic energy  EATOM  =       197.04175453
  Solvation  Ediel_sol  =         0.00000000
  ---------------------------------------------------
  free energy    TOTEN  =       -23.90848893 eV

  energy without entropy =      -23.90848893  energy(sigma->0) =      -23.90848893


--------------------------------------------------------------------------------------------------------




 average (electrostatic) potential at core
  the test charge radii are     0.5201  0.6991
  (the norm of the test charge is              1.0000)
       1 -41.3806       2 -41.3146       3 -41.2328       4 -41.5945       5 -57.5638



 E-fermi :  -8.5100     XC(G=0):  -1.7609     alpha+bet : -0.6216


 k-point     1 :       0.0000    0.0000    0.0000
  band No.  band energies     occupation 
      1     -16.8002      2.00000
      2      -9.4499      2.00000
      3      -9.0385      2.00000
      4      -8.7837      2.00000
      5      -0.7211      0.00000
      6       1.7917      0.00000
      7       1.9162      0.00000
      8       2.2916      0.00000


--------------------------------------------------------------------------------------------------------


 soft charge-density along one line, spin component           1
         0         1         2         3         4         5         6         7         8         9
 total charge-density along one line

 pseudopotential strength for first ion, spin component:           1
 -2.338  -4.029  -0.000  -0.001  -0.002
 -4.029  -6.856  -0.001  -0.002  -0.006
 -0.000  -0.001  -0.338   0.000   0.001
 -0.001  -0.002   0.000  -0.338   0.002
 -0.002  -0.006   0.001   0.002  -0.334
 total augmentation occupancy for first ion, spin component:           1
  3.628  -0.649   0.073   0.143   0.428
 -0.649   0.132  -0.012  -0.025  -0.079
  0.073  -0.012   0.012   0.002   0.007
  0.143  -0.025   0.002   0.015   0.014
  0.428  -0.079   0.007   0.014   0.052


------------------------ aborting loop because EDIFF is reached ----------------------------------------


    CHARGE:  cpu time    0.0326: real time    0.0327
    FORLOC:  cpu time    0.0434: real time    0.0435
    FORNL :  cpu time    0.0650: real time    0.0652
    STRESS:  cpu time    0.2457: real time    0.2463
    FORCOR:  cpu time    0.6387: real time    0.6402
    FORHAR:  cpu time    0.2065: real time    0.2070
    MIXING:  cpu time    0.0179: real time    0.0179
    OFIELD:  cpu time    0.0000: real time    0.0000

  FORCE on cell =-STRESS in cart. coord.  units (eV):
  Direction    XX          YY          ZZ          XY          YZ          ZX
  --------------------------------------------------------------------------------------
  Alpha Z     0.71483     0.71483     0.71483
  Ewald      19.57673    28.29517    31.48752     3.36585     3.11422     2.52448
  Hartree    76.05508    77.38789    83.61745     0.77729     0.66974     0.09466
  E(xc)     -27.49888   -27.45783   -27.46216     0.02726     0.02123     0.01440
  Local    -155.52115  -163.46651  -174.22693    -3.61873    -3.22234    -1.92102
  n-local   -16.50191   -16.49566   -16.36685     0.05870     0.08260    -0.00844
  augment     0.11049     0.09276     0.10737    -0.00210    -0.00283    -0.00575
  Kinetic   104.23595   101.95546   102.09092    -1.39186    -1.24761    -0.68145
  Fock        0.00000     0.00000     0.00000     0.00000     0.00000     0.00000
  -------------------------------------------------------------------------------------
  Total       1.17115     1.02612    -0.03784    -0.78358    -0.58499     0.01687
  in kB       5.53683     4.85115    -0.17890    -3.70450    -2.76564     0.07978
  external pressure =        3.40 kB  Pullay stress =        0.00 kB


 VOLUME and BASIS-vectors are now :
 -----------------------------------------------------------------------------
  energy-cutoff  :      400.00
  volume of cell :      338.89
      direct lattice vectors                 reciprocal lattice vectors
     7.037638700  0.000000000  0.000000000     0.142093114  0.003954937  0.003764274
    -0.196871200  7.073195500  0.000000000    -0.000000000  0.141378815  0.001546768
    -0.178282000 -0.074483700  6.808012000     0.000000000 -0.000000000  0.146885758

  length of vectors
     7.037638700  7.075934769  6.810753239     0.142197976  0.141387276  0.146885758


 FORCES acting on ions
    electron-ion (+dipol)            ewald-force                    non-local-force                 convergence-correction
 -----------------------------------------------------------------------------------------------
   0.503E+02 0.788E+01 0.159E+02   -.568E+02 -.852E+01 -.177E+02   0.542E+01 0.988E+00 0.186E+01   -.714E-05 -.959E-05 -.131E-04
   -.567E+01 -.316E+02 -.412E+02   0.609E+01 0.349E+02 0.457E+02   -.656E+00 -.339E+01 -.438E+01   0.819E-05 0.238E-04 0.229E-05
   -.254E+02 -.209E+02 0.410E+02   0.284E+02 0.233E+02 -.457E+02   -.265E+01 -.217E+01 0.443E+01   0.129E-05 0.114E-05 0.124E-05
   -.189E+02 0.502E+02 -.904E+01   0.219E+02 -.575E+02 0.105E+02   -.206E+01 0.579E+01 -.905E+00   0.227E-05 -.185E-04 -.145E-04
   -.303E+00 -.675E+01 -.671E+01   0.373E+00 0.784E+01 0.717E+01   -.100E+00 -.613E-01 -.103E+01   0.181E-04 -.527E-04 -.117E-03
 -----------------------------------------------------------------------------------------------
   0.420E-01 -.116E+01 0.227E-01   -.355E-14 0.000E+00 0.000E+00   -.423E-01 0.116E+01 -.234E-01   0.227E-04 -.558E-04 -.141E-03


 POSITION                                       TOTAL-FORCE (eV/Angst)
 -----------------------------------------------------------------------------------
      2.36239      3.11202      2.71312        -1.031657      0.345752      0.101278
      3.48944      3.93481      3.90390        -0.236440     -0.091706      0.091761
      3.89194      3.69832      2.18498         0.327183      0.187674     -0.191279
      3.73240      2.30373      3.20557         0.970585     -1.468511      0.574488
      3.37121      3.27551      3.04107        -0.029671      1.026790     -0.576248
 -----------------------------------------------------------------------------------
    total drift:                               -0.000216      0.000536     -0.000831


--------------------------------------------------------------------------------------------------------



  FREE ENERGIE OF THE ION-ELECTRON SYSTEM (eV)
  ---------------------------------------------------
  free  energy   TOTEN  =       -23.90848893 eV

  energy  without entropy=      -23.90848893  energy(sigma->0) =      -23.90848893



--------------------------------------------------------------------------------------------------------


    POTLOK:  cpu time    0.6575: real time    0.6590


--------------------------------------------------------------------------------------------------------


     LOOP+:  cpu time   14.2445: real time   14.2954
    4ORBIT:  cpu time    0.0000: real time    0.0000

 total amount of memory used by VASP MPI-rank0   117565. kBytes
=======================================================================

   base      :      30000. kBytes
   nonlr-proj:       1281. kBytes
   fftplans  :      30736. kBytes
   grid      :      54743. kBytes
   one-center:         15. kBytes
   wavefun   :        790. kBytes

  
  
 General timing and accounting informations for this job:
 ========================================================
  
                  Total CPU time used (sec):       14.955
                            User time (sec):       14.685
                          System time (sec):        0.270
                         Elapsed time (sec):       15.015
  
                   Maximum memory used (kb):      152772.
                   Average memory used (kb):           0.
  
                          Minor page faults:       106903
                          Major page faults:            0
                 Voluntary context switches:          135
