1.244129999999999967e+02 1.239189999999999969e+02 3.262740000000000151e+01 1.234522180000000020e+02 1.234400509999999969e+02 3.281609399999999965e+01 1.281959999999999980e+02 1.260739999999999981e+02 2.985989999999999966e+01 1.282560000000000002e+02 1.256009999999999991e+02 3.091839999999999833e+01 1.304219999999999970e+02 1.285920000000000130e+02 2.783980000000000032e+01 1.313919999999999959e+02 1.280980000000000132e+02 2.764630000000000010e+01
