 vasp.5.4.4.18Apr17-6-g9f103f2a35 (build Jul 12 2018 13:43:46) complex           
 executed on             LinuxGNU date 2019.06.24  13:12:23
 running on    1 total cores
 distrk:  each k-point on    1 cores,    1 groups
 distr:  one band on NCORES_PER_BAND=   1 cores,    1 groups


--------------------------------------------------------------------------------------------------------


 INCAR:
 POTCAR:    PAW_PBE H 15Jun2001                   
 POTCAR:    PAW_PBE C 08Apr2002                   
 POTCAR:    PAW_PBE H 15Jun2001                   
   VRHFIN =H: ultrasoft test                                                    
   LEXCH  = PE                                                                  
   EATOM  =    12.4884 eV,    0.9179 Ry                                         
                                                                                
   TITEL  = PAW_PBE H 15Jun2001                                                 
   LULTRA =        F    use ultrasoft PP ?                                      
   IUNSCR =        0    unscreen: 0-lin 1-nonlin 2-no                           
   RPACOR =    0.000    partial core radius                                     
   POMASS =    1.000; ZVAL   =    1.000    mass and valenz                      
   RCORE  =    1.100    outmost cutoff radius                                   
   RWIGS  =    0.700; RWIGS  =    0.370    wigner-seitz radius (au A)           
   ENMAX  =  250.000; ENMIN  =  200.000 eV                                      
   RCLOC  =    0.701    cutoff for local pot                                    
   LCOR   =        T    correct aug charges                                     
   LPAW   =        T    paw PP                                                  
   EAUG   =  400.000                                                            
   RMAX   =    1.123    core radius for proj-oper                               
   RAUG   =    1.200    factor for augmentation sphere                          
   RDEP   =    1.112    radius for radial grids                                 
   RDEPT  =    0.926    core radius for aug-charge                              
                                                                                
   Atomic configuration                                                         
    2 entries                                                                   
     n  l   j            E        occ.                                          
     1  0  0.50        -6.4927   1.0000                                         
     2  1  0.50        -3.4015   0.0000                                         
   Description                                                                  
     l       E           TYP  RCUT    TYP  RCUT                                 
     0     -6.4927494     23  1.100                                             
     0      6.8029130     23  1.100                                             
     1     -4.0817478     23  1.100                                             
  local pseudopotential read in
  atomic valenz-charges read in
  non local Contribution for L=           0  read in
    real space projection operators read in
  non local Contribution for L=           0  read in
    real space projection operators read in
  non local Contribution for L=           1  read in
    real space projection operators read in
    PAW grid and wavefunctions read in

   number of l-projection  operators is LMAX  =           3
   number of lm-projection operators is LMMAX =           5

 POTCAR:    PAW_PBE C 08Apr2002                   
   VRHFIN =C: s2p2                                                              
   LEXCH  = PE                                                                  
   EATOM  =   147.1560 eV,   10.8157 Ry                                         
                                                                                
   TITEL  = PAW_PBE C 08Apr2002                                                 
   LULTRA =        F    use ultrasoft PP ?                                      
   IUNSCR =        1    unscreen: 0-lin 1-nonlin 2-no                           
   RPACOR =    1.200    partial core radius                                     
   POMASS =   12.011; ZVAL   =    4.000    mass and valenz                      
   RCORE  =    1.500    outmost cutoff radius                                   
   RWIGS  =    1.630; RWIGS  =    0.863    wigner-seitz radius (au A)           
   ENMAX  =  400.000; ENMIN  =  300.000 eV                                      
   ICORE  =        2    local potential                                         
   LCOR   =        T    correct aug charges                                     
   LPAW   =        T    paw PP                                                  
   EAUG   =  644.873                                                            
   DEXC   =    0.000                                                            
   RMAX   =    1.529    core radius for proj-oper                               
   RAUG   =    1.300    factor for augmentation sphere                          
   RDEP   =    1.501    radius for radial grids                                 
   RDEPT  =    1.300    core radius for aug-charge                              
                                                                                
   Atomic configuration                                                         
    4 entries                                                                   
     n  l   j            E        occ.                                          
     1  0  0.50      -273.3789   2.0000                                         
     2  0  0.50       -13.7508   2.0000                                         
     2  1  0.50        -5.2854   2.0000                                         
     3  2  1.50        -5.4423   0.0000                                         
   Description                                                                  
     l       E           TYP  RCUT    TYP  RCUT                                 
     0    -13.7508458     23  1.200                                             
     0     -8.2022199     23  1.200                                             
     1     -5.2854383     23  1.500                                             
     1     34.0145650     23  1.500                                             
     2     -5.4423304      7  1.500                                             
  local pseudopotential read in
  partial core-charges read in
  partial kinetic energy density read in
  atomic valenz-charges read in
  non local Contribution for L=           0  read in
    real space projection operators read in
  non local Contribution for L=           0  read in
    real space projection operators read in
  non local Contribution for L=           1  read in
    real space projection operators read in
  non local Contribution for L=           1  read in
    real space projection operators read in
    PAW grid and wavefunctions read in

   number of l-projection  operators is LMAX  =           4
   number of lm-projection operators is LMMAX =           8


 ----------------------------------------------------------------------------- 
|                                                                             |
|  ADVICE TO THIS USER RUNNING 'VASP/VAMP'   (HEAR YOUR MASTER'S VOICE ...):  |
|                                                                             |
|      You have a (more or less) 'small supercell' and for smaller cells      |
|      it is recommended  to use the reciprocal-space projection scheme!      |
|      The real space optimization is not  efficient for small cells and it   |
|      is also less accurate ...                                              |
|      Therefore set LREAL=.FALSE. in the  INCAR file                         |
|                                                                             |
 ----------------------------------------------------------------------------- 

 Optimization of the real space projectors (new method)

 maximal supplied QI-value         = 34.20
 optimisation between [QCUT,QGAM] = [  9.92, 20.18] = [ 27.55,114.04] Ry 
 Optimized for a Real-space Cutoff    1.34 Angstroem

   l    n(q)    QCUT    max X(q) W(low)/X(q) W(high)/X(q)  e(spline) 
   0      8     9.919    19.460    0.16E-03    0.20E-03    0.36E-06
   0      8     9.919    12.209    0.16E-03    0.20E-03    0.35E-06
   1      8     9.919     4.655    0.19E-03    0.46E-03    0.40E-06
 Optimization of the real space projectors (new method)

 maximal supplied QI-value         = 25.13
 optimisation between [QCUT,QGAM] = [ 10.05, 20.36] = [ 28.30,116.06] Ry 
 Optimized for a Real-space Cutoff    1.51 Angstroem

   l    n(q)    QCUT    max X(q) W(low)/X(q) W(high)/X(q)  e(spline) 
   0      9    10.053   115.676    0.19E-03    0.21E-03    0.38E-06
   0      9    10.053    87.132    0.19E-03    0.21E-03    0.38E-06
   1      9    10.053     4.429    0.87E-04    0.11E-03    0.39E-06
   1      9    10.053     2.733    0.59E-04    0.62E-04    0.43E-06
  PAW_PBE H 15Jun2001                   :
 energy of atom  1       EATOM=  -12.4884
 kinetic energy error for atom=    0.0098 (will be added to EATOM!!)
  PAW_PBE C 08Apr2002                   :
 energy of atom  2       EATOM= -147.1560
 kinetic energy error for atom=    0.0288 (will be added to EATOM!!)


 POSCAR: POSCAR file written by OVITO            
  positions in cartesian coordinates
  No initial velocities read in
 exchange correlation table for  LEXCH =        8
   RHO(1)=    0.500       N(1)  =     2000
   RHO(2)=  100.500       N(2)  =     4000



--------------------------------------------------------------------------------------------------------


 ion  position               nearest neighbor table
   1  0.478  0.515  0.387-   5 1.10
   2  0.459  0.481  0.508-   5 1.06
   3  0.579  0.479  0.457-   5 1.08
   4  0.499  0.387  0.429-   5 1.14
   5  0.503  0.467  0.445-   2 1.06   3 1.08   1 1.10   4 1.14


IMPORTANT INFORMATION: All symmetrisations will be switched off!
NOSYMM: (Re-)initialisation of all symmetry stuff for point group C_1.




Automatic generation of k-mesh.
 generate k-points for:    1    1    1
Space group operators:
 irot       det(A)        alpha          n_x          n_y          n_z        tau_x        tau_y        tau_z
    1     1.000000     0.000000     1.000000     0.000000     0.000000     0.000000     0.000000     0.000000
 
 Subroutine IBZKPT returns following result:
 ===========================================
 
 Found      1 irreducible k-points:
 
 Following reciprocal coordinates:
            Coordinates               Weight
  0.000000  0.000000  0.000000      1.000000
 
 Following cartesian coordinates:
            Coordinates               Weight
  0.000000  0.000000  0.000000      1.000000
 


--------------------------------------------------------------------------------------------------------




 Dimension of arrays:
   k-points           NKPTS =      1   k-points in BZ     NKDIM =      1   number of bands    NBANDS=      8
   number of dos      NEDOS =    301   number of ions     NIONS =      5
   non local maximal  LDIM  =      4   non local SUM 2l+1 LMDIM =      8
   total plane-waves  NPLWV = 777600
   max r-space proj   IRMAX =   4316   max aug-charges    IRDMAX=   3700
   dimension x,y,z NGX =    96 NGY =   90 NGZ =   90
   dimension x,y,z NGXF=   192 NGYF=  180 NGZF=  180
   support grid    NGXF=   192 NGYF=  180 NGZF=  180
   ions per type =               4   1
   NGX,Y,Z   is equivalent  to a cutoff of  11.49, 10.82, 10.97 a.u.
   NGXF,Y,Z  is equivalent  to a cutoff of  22.97, 21.63, 21.94 a.u.

 SYSTEM =  unknown system                          
 POSCAR =  POSCAR file written by OVITO            

 Startparameter for this run:
   NWRITE =      2    write-flag & timer
   PREC   = a         normal or accurate (medium, high low for compatibility)
   ISTART =      0    job   : 0-new  1-cont  2-samecut
   ICHARG =      2    charge: 1-file 2-atom 10-const
   ISPIN  =      1    spin polarized calculation?
   LNONCOLLINEAR =      F non collinear calculations
   LSORBIT =      F    spin-orbit coupling
   INIWAV =      1    electr: 0-lowe 1-rand  2-diag
   LASPH  =      F    aspherical Exc in radial PAW
   METAGGA=      F    non-selfconsistent MetaGGA calc.

 Electronic Relaxation 1
   ENCUT  =  400.0 eV  29.40 Ry    5.42 a.u.  22.66 22.56 22.24*2*pi/ulx,y,z
   ENINI  =  400.0     initial cutoff
   ENAUG  =  644.9 eV  augmentation charge cutoff
   NELM   =    120;   NELMIN=  4; NELMDL= -5     # of ELM steps 
   EDIFF  = 0.1E-05   stopping-criterion for ELM
   LREAL  =      T    real-space projection
   NLSPLINE    = F    spline interpolate recip. space projectors
   LCOMPAT=      F    compatible to vasp.4.4
   GGA_COMPAT  = T    GGA compatible to vasp.4.4-vasp.4.6
   LMAXPAW     = -100 max onsite density
   LMAXMIX     =    2 max onsite mixed and CHGCAR
   VOSKOWN=      0    Vosko Wilk Nusair interpolation
   ROPT   =   -0.00025  -0.00025
 Ionic relaxation
   EDIFFG = 0.1E-04   stopping-criterion for IOM
   NSW    =      0    number of steps for IOM
   NBLOCK =      1;   KBLOCK =      1    inner block; outer block 
   IBRION =     -1    ionic relax: 0-MD 1-quasi-New 2-CG
   NFREE  =      0    steps in history (QN), initial steepest desc. (CG)
   ISIF   =      2    stress and relaxation
   IWAVPR =     10    prediction:  0-non 1-charg 2-wave 3-comb
   ISYM   =      0    0-nonsym 1-usesym 2-fastsym
   LCORR  =      T    Harris-Foulkes like correction to forces

   POTIM  = 0.5000    time-step for ionic-motion
   TEIN   =    0.0    initial temperature
   TEBEG  =    0.0;   TEEND  =   0.0 temperature during run
   SMASS  =  -3.00    Nose mass-parameter (am)
   estimated Nose-frequenzy (Omega)   =  0.10E-29 period in steps =****** mass=  -0.441E-26a.u.
   SCALEE = 1.0000    scale energy and forces
   NPACO  =    256;   APACO  = 16.0  distance and # of slots for P.C.
   PSTRESS=    0.0 pullay stress

  Mass of Ions in am
   POMASS =   1.00 12.01
  Ionic Valenz
   ZVAL   =   1.00  4.00
  Atomic Wigner-Seitz radii
   RWIGS  =  -1.00 -1.00
  virtual crystal weights 
   VCA    =   1.00  1.00
   NELECT =       8.0000    total number of electrons
   NUPDOWN=      -1.0000    fix difference up-down

 DOS related values:
   EMIN   =  10.00;   EMAX   =-10.00  energy-range for DOS
   EFERMI =   0.00
   ISMEAR =     0;   SIGMA  =   0.05  broadening in eV -4-tet -1-fermi 0-gaus

 Electronic relaxation 2 (details)
   IALGO  =     38    algorithm
   LDIAG  =      T    sub-space diagonalisation (order eigenvalues)
   LSUBROT=      F    optimize rotation matrix (better conditioning)
   TURBO    =      0    0=normal 1=particle mesh
   IRESTART =      0    0=no restart 2=restart with 2 vectors
   NREBOOT  =      0    no. of reboots
   NMIN     =      0    reboot dimension
   EREF     =   0.00    reference energy to select bands
   IMIX   =      4    mixing-type and parameters
     AMIX     =   0.40;   BMIX     =  1.00
     AMIX_MAG =   1.60;   BMIX_MAG =  1.00
     AMIN     =   0.10
     WC   =   100.;   INIMIX=   1;  MIXPRE=   1;  MAXMIX= -45

 Intra band minimization:
   WEIMIN = 0.0000     energy-eigenvalue tresh-hold
   EBREAK =  0.31E-07  absolut break condition
   DEPER  =   0.30     relativ break condition  

   TIME   =   0.40     timestep for ELM

  volume/ion in A,a.u.               =     524.22      3537.58
  Fermi-wavevector in a.u.,A,eV,Ry     =   0.237472  0.448756  0.767270  0.056393
  Thomas-Fermi vector in A             =   1.039106

 Write flags
   LWAVE        =      F    write WAVECAR
   LDOWNSAMPLE  =      F    k-point downsampling of WAVECAR
   LCHARG       =      F    write CHGCAR
   LVTOT        =      F    write LOCPOT, total local potential
   LVHAR        =      F    write LOCPOT, Hartree potential only
   LELF         =      F    write electronic localiz. function (ELF)
   LORBIT       =      0    0 simple, 1 ext, 2 COOP (PROOUT), +10 PAW based schemes


 Dipole corrections
   LMONO  =      F    monopole corrections only (constant potential shift)
   LDIPOL =      F    correct potential (dipole corrections)
   IDIPOL =      0    1-x, 2-y, 3-z, 4-all directions 
   EPSILON=  1.0000000 bulk dielectric constant

 Exchange correlation treatment:
   GGA     =    --    GGA type
   LEXCH   =     8    internal setting for exchange type
   VOSKOWN=      0    Vosko Wilk Nusair interpolation
   LHFCALC =     F    Hartree Fock is set to
   LHFONE  =     F    Hartree Fock one center treatment
   AEXX    =    0.0000 exact exchange contribution

 Linear response parameters
   LEPSILON=     F    determine dielectric tensor
   LRPA    =     F    only Hartree local field effects (RPA)
   LNABLA  =     F    use nabla operator in PAW spheres
   LVEL    =     F    velocity operator in full k-point grid
   LINTERFAST=   F  fast interpolation
   KINTER  =     0    interpolate to denser k-point grid
   CSHIFT  =0.1000    complex shift for real part using Kramers Kronig
   OMEGAMAX=  -1.0    maximum frequency
   DEG_THRESHOLD= 0.2000000E-02 threshold for treating states as degnerate
   RTIME   =   -0.100 relaxation time in fs
  (WPLASMAI=    0.000 imaginary part of plasma frequency in eV, 0.658/RTIME)
   DFIELD  = 0.0000000 0.0000000 0.0000000 field for delta impulse in time

 Orbital magnetization related:
   ORBITALMAG=     F  switch on orbital magnetization
   LCHIMAG   =     F  perturbation theory with respect to B field
   DQ        =  0.001000  dq finite difference perturbation B field
   LLRAUG    =     F  two centre corrections for induced B field



--------------------------------------------------------------------------------------------------------


 Static calculation
 charge density and potential will be updated during run
 non-spin polarized calculation
 Variant of blocked Davidson
 Davidson routine will perform the subspace rotation
 perform sub-space diagonalisation
    after iterative eigenvector-optimisation
 modified Broyden-mixing scheme, WC =      100.0
 initial mixing is a Kerker type mixing with AMIX =  0.4000 and BMIX =      1.0000
 Hartree-type preconditioning will be used
 using additional bands            4
 real space projection scheme for non local part
 use partial core corrections
 calculate Harris-corrections to forces   (improved forces if not selfconsistent)
 use gradient corrections 
 use of overlap-Matrix (Vanderbilt PP)
 Gauss-broadening in eV      SIGMA  =   0.05


--------------------------------------------------------------------------------------------------------


  energy-cutoff  :      400.00
  volume of cell :     2621.08
      direct lattice vectors                 reciprocal lattice vectors
    13.894968000  0.000000000  0.000000000     0.071968500  0.000521897 -0.000015013
    -0.100307800 13.832222000  0.000000000    -0.000000000  0.072294965  0.001590017
     0.005019800 -0.299932800 13.637354900     0.000000000 -0.000000000  0.073328003

  length of vectors
    13.894968000 13.832585699 13.640653707     0.071970394  0.072312448  0.073328003



 k-points in units of 2pi/SCALE and weight: read from INCAR                         
   0.00000000  0.00000000  0.00000000       1.000

 k-points in reciprocal lattice and weights: read from INCAR                         
   0.00000000  0.00000000  0.00000000       1.000

 position of ions in fractional coordinates (direct lattice) 
   0.47810691  0.51468733  0.38716579
   0.45942843  0.48100087  0.50826477
   0.57947145  0.47928754  0.45732308
   0.49881359  0.38658871  0.42938070
   0.50320041  0.46749222  0.44546813

 position of ions in cartesian coordinates  (Angst):
   6.59359650  7.00314570  5.27991730
   6.33804660  6.50086550  6.93138700
   8.00595660  6.49244550  6.23667720
   6.89437640  5.21859550  5.85561700
   6.94729660  6.33284570  6.07500700



--------------------------------------------------------------------------------------------------------


 k-point  1 :   0.0000 0.0000 0.0000  plane waves:   47661

 maximum and minimum number of plane-waves per node :     47661    47661

 maximum number of plane-waves:     47661
 maximum index in each direction: 
   IXMAX=   22   IYMAX=   22   IZMAX=   22
   IXMIN=  -22   IYMIN=  -22   IZMIN=  -22


 serial   3D FFT for wavefunctions
 parallel 3D FFT for charge:
    minimum data exchange during FFTs selected (reduces bandwidth)


 total amount of memory used by VASP MPI-rank0   633643. kBytes
=======================================================================

   base      :      30000. kBytes
   nonlr-proj:       1165. kBytes
   fftplans  :     213988. kBytes
   grid      :     382371. kBytes
   one-center:         15. kBytes
   wavefun   :       6104. kBytes

     INWAV:  cpu time    0.0000: real time    0.0000
 Broyden mixing: mesh for mixing (old mesh)
   NGX = 45   NGY = 45   NGZ = 45
  (NGX  =192   NGY  =180   NGZ  =180)
  gives a total of  91125 points

 initial charge density was supplied:
 charge density of overlapping atoms calculated
 number of electron       8.0000000 magnetization 
 keeping initial charge density in first step


--------------------------------------------------------------------------------------------------------


 Maximum index for non-local projection operator         4143
 Maximum index for augmentation-charges         3385 (set IRDMAX)


--------------------------------------------------------------------------------------------------------


 First call to EWALD:  gamma=   0.129
 Maximum number of real-space cells 3x 3x 3
 Maximum number of reciprocal cells 3x 3x 3

    FEWALD:  cpu time    0.0008: real time    0.0008


--------------------------------------- Iteration      1(   1)  ---------------------------------------


    POTLOK:  cpu time    4.6843: real time    4.6956
    SETDIJ:  cpu time    0.0077: real time    0.0077
     EDDAV:  cpu time    2.4810: real time    2.4870
       DOS:  cpu time    0.0002: real time    0.0002
    --------------------------------------------
      LOOP:  cpu time    7.1732: real time    7.1906

 eigenvalue-minimisations  :    32
 total energy-change (2. order) : 0.2910268E+01  (-0.1762163E+03)
 number of electron       8.0000000 magnetization 
 augmentation part        8.0000000 magnetization 

 Free energy of the ion-electron system (eV)
  ---------------------------------------------------
  alpha Z        PSCENC =         0.09242417
  Ewald energy   TEWEN  =       164.40409849
  -Hartree energ DENC   =      -278.17018875
  -exchange      EXHF   =         0.00000000
  -V(xc)+E(xc)   XCENC  =        22.02065287
  PAW double counting   =       117.05815612     -117.66307307
  entropy T*S    EENTRO =        -0.00000000
  eigenvalues    EBANDS =      -101.87355631
  atomic energy  EATOM  =       197.04175453
  Solvation  Ediel_sol  =         0.00000000
  ---------------------------------------------------
  free energy    TOTEN  =         2.91026806 eV

  energy without entropy =        2.91026806  energy(sigma->0) =        2.91026806


--------------------------------------------------------------------------------------------------------




--------------------------------------- Iteration      1(   2)  ---------------------------------------


     EDDAV:  cpu time    2.1341: real time    2.1393
       DOS:  cpu time    0.0001: real time    0.0001
    --------------------------------------------
      LOOP:  cpu time    2.1342: real time    2.1395

 eigenvalue-minimisations  :    24
 total energy-change (2. order) :-0.2956937E+02  (-0.2956937E+02)
 number of electron       8.0000000 magnetization 
 augmentation part        8.0000000 magnetization 

 Free energy of the ion-electron system (eV)
  ---------------------------------------------------
  alpha Z        PSCENC =         0.09242417
  Ewald energy   TEWEN  =       164.40409849
  -Hartree energ DENC   =      -278.17018875
  -exchange      EXHF   =         0.00000000
  -V(xc)+E(xc)   XCENC  =        22.02065287
  PAW double counting   =       117.05815612     -117.66307307
  entropy T*S    EENTRO =        -0.00000000
  eigenvalues    EBANDS =      -131.44292856
  atomic energy  EATOM  =       197.04175453
  Solvation  Ediel_sol  =         0.00000000
  ---------------------------------------------------
  free energy    TOTEN  =       -26.65910419 eV

  energy without entropy =      -26.65910419  energy(sigma->0) =      -26.65910419


--------------------------------------------------------------------------------------------------------




--------------------------------------- Iteration      1(   3)  ---------------------------------------


     EDDAV:  cpu time    2.8289: real time    2.8355
       DOS:  cpu time    0.0001: real time    0.0001
    --------------------------------------------
      LOOP:  cpu time    2.8290: real time    2.8357

 eigenvalue-minimisations  :    32
 total energy-change (2. order) :-0.8210918E+00  (-0.8210918E+00)
 number of electron       8.0000000 magnetization 
 augmentation part        8.0000000 magnetization 

 Free energy of the ion-electron system (eV)
  ---------------------------------------------------
  alpha Z        PSCENC =         0.09242417
  Ewald energy   TEWEN  =       164.40409849
  -Hartree energ DENC   =      -278.17018875
  -exchange      EXHF   =         0.00000000
  -V(xc)+E(xc)   XCENC  =        22.02065287
  PAW double counting   =       117.05815612     -117.66307307
  entropy T*S    EENTRO =        -0.00000000
  eigenvalues    EBANDS =      -132.26402041
  atomic energy  EATOM  =       197.04175453
  Solvation  Ediel_sol  =         0.00000000
  ---------------------------------------------------
  free energy    TOTEN  =       -27.48019604 eV

  energy without entropy =      -27.48019604  energy(sigma->0) =      -27.48019604


--------------------------------------------------------------------------------------------------------




--------------------------------------- Iteration      1(   4)  ---------------------------------------


     EDDAV:  cpu time    2.9036: real time    2.9105
       DOS:  cpu time    0.0001: real time    0.0001
    --------------------------------------------
      LOOP:  cpu time    2.9037: real time    2.9106

 eigenvalue-minimisations  :    32
 total energy-change (2. order) :-0.7010288E-03  (-0.7010287E-03)
 number of electron       8.0000000 magnetization 
 augmentation part        8.0000000 magnetization 

 Free energy of the ion-electron system (eV)
  ---------------------------------------------------
  alpha Z        PSCENC =         0.09242417
  Ewald energy   TEWEN  =       164.40409849
  -Hartree energ DENC   =      -278.17018875
  -exchange      EXHF   =         0.00000000
  -V(xc)+E(xc)   XCENC  =        22.02065287
  PAW double counting   =       117.05815612     -117.66307307
  entropy T*S    EENTRO =        -0.00000000
  eigenvalues    EBANDS =      -132.26472144
  atomic energy  EATOM  =       197.04175453
  Solvation  Ediel_sol  =         0.00000000
  ---------------------------------------------------
  free energy    TOTEN  =       -27.48089707 eV

  energy without entropy =      -27.48089707  energy(sigma->0) =      -27.48089707


--------------------------------------------------------------------------------------------------------




--------------------------------------- Iteration      1(   5)  ---------------------------------------


     EDDAV:  cpu time    2.7496: real time    2.7562
       DOS:  cpu time    0.0001: real time    0.0001
    CHARGE:  cpu time    0.3599: real time    0.3608
    MIXING:  cpu time    0.1150: real time    0.1153
    --------------------------------------------
      LOOP:  cpu time    3.2247: real time    3.2324

 eigenvalue-minimisations  :    32
 total energy-change (2. order) :-0.1018590E-06  (-0.1018521E-06)
 number of electron       8.0000006 magnetization 
 augmentation part        0.2262809 magnetization 

 Broyden mixing:
  rms(total) = 0.87669E+00    rms(broyden)= 0.87647E+00
  rms(prec ) = 0.10860E+01
  weight for this iteration     100.00

 Free energy of the ion-electron system (eV)
  ---------------------------------------------------
  alpha Z        PSCENC =         0.09242417
  Ewald energy   TEWEN  =       164.40409849
  -Hartree energ DENC   =      -278.17018875
  -exchange      EXHF   =         0.00000000
  -V(xc)+E(xc)   XCENC  =        22.02065287
  PAW double counting   =       117.05815612     -117.66307307
  entropy T*S    EENTRO =        -0.00000000
  eigenvalues    EBANDS =      -132.26472154
  atomic energy  EATOM  =       197.04175453
  Solvation  Ediel_sol  =         0.00000000
  ---------------------------------------------------
  free energy    TOTEN  =       -27.48089717 eV

  energy without entropy =      -27.48089717  energy(sigma->0) =      -27.48089717


--------------------------------------------------------------------------------------------------------




--------------------------------------- Iteration      1(   6)  ---------------------------------------


    POTLOK:  cpu time    4.7136: real time    4.7248
    SETDIJ:  cpu time    0.0076: real time    0.0076
     EDDAV:  cpu time    3.4586: real time    3.4669
       DOS:  cpu time    0.0001: real time    0.0001
    CHARGE:  cpu time    0.4300: real time    0.4310
    MIXING:  cpu time    0.1349: real time    0.1352
    --------------------------------------------
      LOOP:  cpu time    8.7449: real time    8.7657

 eigenvalue-minimisations  :    32
 total energy-change (2. order) : 0.2915396E+01  (-0.8957415E+00)
 number of electron       8.0000006 magnetization 
 augmentation part        0.1978498 magnetization 

 Broyden mixing:
  rms(total) = 0.45273E+00    rms(broyden)= 0.45260E+00
  rms(prec ) = 0.51639E+00
  weight for this iteration     100.00

 eigenvalues of (default mixing * dielectric matrix)
  average eigenvalue GAMMA=   1.1878
  1.1878

 Free energy of the ion-electron system (eV)
  ---------------------------------------------------
  alpha Z        PSCENC =         0.09242417
  Ewald energy   TEWEN  =       164.40409849
  -Hartree energ DENC   =      -298.06447405
  -exchange      EXHF   =         0.00000000
  -V(xc)+E(xc)   XCENC  =        23.22487644
  PAW double counting   =       239.32911048     -240.11058065
  entropy T*S    EENTRO =        -0.00000000
  eigenvalues    EBANDS =      -110.48271029
  atomic energy  EATOM  =       197.04175453
  Solvation  Ediel_sol  =         0.00000000
  ---------------------------------------------------
  free energy    TOTEN  =       -24.56550086 eV

  energy without entropy =      -24.56550086  energy(sigma->0) =      -24.56550086


--------------------------------------------------------------------------------------------------------




--------------------------------------- Iteration      1(   7)  ---------------------------------------


    POTLOK:  cpu time    5.0306: real time    5.2226
    SETDIJ:  cpu time    0.0076: real time    0.0076
     EDDAV:  cpu time    2.3968: real time    2.4025
       DOS:  cpu time    0.0001: real time    0.0001
    CHARGE:  cpu time    0.3031: real time    0.3038
    MIXING:  cpu time    0.1104: real time    0.1107
    --------------------------------------------
      LOOP:  cpu time    7.8486: real time    8.0474

 eigenvalue-minimisations  :    24
 total energy-change (2. order) : 0.4800428E+00  (-0.7140574E-01)
 number of electron       8.0000006 magnetization 
 augmentation part        0.1896319 magnetization 

 Broyden mixing:
  rms(total) = 0.22680E+00    rms(broyden)= 0.22676E+00
  rms(prec ) = 0.25686E+00
  weight for this iteration     100.00

 eigenvalues of (default mixing * dielectric matrix)
  average eigenvalue GAMMA=   1.6422
  1.2396  2.0448

 Free energy of the ion-electron system (eV)
  ---------------------------------------------------
  alpha Z        PSCENC =         0.09242417
  Ewald energy   TEWEN  =       164.40409849
  -Hartree energ DENC   =      -308.00494911
  -exchange      EXHF   =         0.00000000
  -V(xc)+E(xc)   XCENC  =        23.96950015
  PAW double counting   =       366.92495302     -367.73263334
  entropy T*S    EENTRO =        -0.00000000
  eigenvalues    EBANDS =      -100.78060601
  atomic energy  EATOM  =       197.04175453
  Solvation  Ediel_sol  =         0.00000000
  ---------------------------------------------------
  free energy    TOTEN  =       -24.08545810 eV

  energy without entropy =      -24.08545810  energy(sigma->0) =      -24.08545810


--------------------------------------------------------------------------------------------------------




--------------------------------------- Iteration      1(   8)  ---------------------------------------


    POTLOK:  cpu time    4.2795: real time    4.4036
    SETDIJ:  cpu time    0.0066: real time    0.0066
     EDDAV:  cpu time    1.2454: real time    1.2484
       DOS:  cpu time    0.0002: real time    0.0002
    CHARGE:  cpu time    0.2981: real time    0.2988
    MIXING:  cpu time    0.1019: real time    0.1021
    --------------------------------------------
      LOOP:  cpu time    5.9317: real time    6.0597

 eigenvalue-minimisations  :    16
 total energy-change (2. order) : 0.1621637E+00  (-0.1630093E-01)
 number of electron       8.0000006 magnetization 
 augmentation part        0.1869046 magnetization 

 Broyden mixing:
  rms(total) = 0.30182E-01    rms(broyden)= 0.30162E-01
  rms(prec ) = 0.48363E-01
  weight for this iteration     100.00

 eigenvalues of (default mixing * dielectric matrix)
  average eigenvalue GAMMA=   1.5484
  2.2085  1.0463  1.3905

 Free energy of the ion-electron system (eV)
  ---------------------------------------------------
  alpha Z        PSCENC =         0.09242417
  Ewald energy   TEWEN  =       164.40409849
  -Hartree energ DENC   =      -314.90031215
  -exchange      EXHF   =         0.00000000
  -V(xc)+E(xc)   XCENC  =        24.57035243
  PAW double counting   =       473.18643028     -473.98301657
  entropy T*S    EENTRO =        -0.00000000
  eigenvalues    EBANDS =       -94.33502557
  atomic energy  EATOM  =       197.04175453
  Solvation  Ediel_sol  =         0.00000000
  ---------------------------------------------------
  free energy    TOTEN  =       -23.92329438 eV

  energy without entropy =      -23.92329438  energy(sigma->0) =      -23.92329438


--------------------------------------------------------------------------------------------------------




--------------------------------------- Iteration      1(   9)  ---------------------------------------


    POTLOK:  cpu time    4.0140: real time    4.0236
    SETDIJ:  cpu time    0.0065: real time    0.0065
     EDDAV:  cpu time    1.1954: real time    1.1982
       DOS:  cpu time    0.0001: real time    0.0001
    CHARGE:  cpu time    0.2589: real time    0.2595
    MIXING:  cpu time    0.1005: real time    0.1008
    --------------------------------------------
      LOOP:  cpu time    5.5754: real time    5.5887

 eigenvalue-minimisations  :    16
 total energy-change (2. order) : 0.9275485E-02  (-0.5439448E-03)
 number of electron       8.0000006 magnetization 
 augmentation part        0.1864954 magnetization 

 Broyden mixing:
  rms(total) = 0.18435E-01    rms(broyden)= 0.18430E-01
  rms(prec ) = 0.31399E-01
  weight for this iteration     100.00

 eigenvalues of (default mixing * dielectric matrix)
  average eigenvalue GAMMA=   1.9126
  3.0369  2.4246  0.9536  1.2352

 Free energy of the ion-electron system (eV)
  ---------------------------------------------------
  alpha Z        PSCENC =         0.09242417
  Ewald energy   TEWEN  =       164.40409849
  -Hartree energ DENC   =      -316.43798223
  -exchange      EXHF   =         0.00000000
  -V(xc)+E(xc)   XCENC  =        24.67133626
  PAW double counting   =       480.86466982     -481.65724206
  entropy T*S    EENTRO =        -0.00000000
  eigenvalues    EBANDS =       -92.89307788
  atomic energy  EATOM  =       197.04175453
  Solvation  Ediel_sol  =         0.00000000
  ---------------------------------------------------
  free energy    TOTEN  =       -23.91401889 eV

  energy without entropy =      -23.91401889  energy(sigma->0) =      -23.91401889


--------------------------------------------------------------------------------------------------------




--------------------------------------- Iteration      1(  10)  ---------------------------------------


    POTLOK:  cpu time    3.9670: real time    3.9764
    SETDIJ:  cpu time    0.0065: real time    0.0065
     EDDAV:  cpu time    1.2249: real time    1.2278
       DOS:  cpu time    0.0001: real time    0.0001
    CHARGE:  cpu time    0.2640: real time    0.2646
    MIXING:  cpu time    0.1087: real time    0.1090
    --------------------------------------------
      LOOP:  cpu time    5.5712: real time    5.5844

 eigenvalue-minimisations  :    16
 total energy-change (2. order) : 0.1012767E-01  (-0.6566886E-03)
 number of electron       8.0000006 magnetization 
 augmentation part        0.1862435 magnetization 

 Broyden mixing:
  rms(total) = 0.63733E-02    rms(broyden)= 0.63715E-02
  rms(prec ) = 0.12897E-01
  weight for this iteration     100.00

 eigenvalues of (default mixing * dielectric matrix)
  average eigenvalue GAMMA=   1.7611
  3.0254  2.3566  0.9713  1.2260  1.2260

 Free energy of the ion-electron system (eV)
  ---------------------------------------------------
  alpha Z        PSCENC =         0.09242417
  Ewald energy   TEWEN  =       164.40409849
  -Hartree energ DENC   =      -318.30413665
  -exchange      EXHF   =         0.00000000
  -V(xc)+E(xc)   XCENC  =        24.74943243
  PAW double counting   =       470.81267057     -471.60198328
  entropy T*S    EENTRO =        -0.00000000
  eigenvalues    EBANDS =       -91.09815149
  atomic energy  EATOM  =       197.04175453
  Solvation  Ediel_sol  =         0.00000000
  ---------------------------------------------------
  free energy    TOTEN  =       -23.90389123 eV

  energy without entropy =      -23.90389123  energy(sigma->0) =      -23.90389123


--------------------------------------------------------------------------------------------------------




--------------------------------------- Iteration      1(  11)  ---------------------------------------


    POTLOK:  cpu time    3.9572: real time    3.9666
    SETDIJ:  cpu time    0.0063: real time    0.0064
     EDDAV:  cpu time    2.2770: real time    2.2824
       DOS:  cpu time    0.0001: real time    0.0001
    CHARGE:  cpu time    0.2696: real time    0.2702
    MIXING:  cpu time    0.1051: real time    0.1054
    --------------------------------------------
      LOOP:  cpu time    6.6153: real time    6.6310

 eigenvalue-minimisations  :    32
 total energy-change (2. order) :-0.4624640E-02  (-0.1434559E-03)
 number of electron       8.0000006 magnetization 
 augmentation part        0.1859066 magnetization 

 Broyden mixing:
  rms(total) = 0.40988E-02    rms(broyden)= 0.40981E-02
  rms(prec ) = 0.86597E-02
  weight for this iteration     100.00

 eigenvalues of (default mixing * dielectric matrix)
  average eigenvalue GAMMA=   2.1140
  4.4170  2.8442  2.2397  1.2716  0.9558  0.9558

 Free energy of the ion-electron system (eV)
  ---------------------------------------------------
  alpha Z        PSCENC =         0.09242417
  Ewald energy   TEWEN  =       164.40409849
  -Hartree energ DENC   =      -318.85184494
  -exchange      EXHF   =         0.00000000
  -V(xc)+E(xc)   XCENC  =        24.76915235
  PAW double counting   =       472.67330235     -473.46375213
  entropy T*S    EENTRO =        -0.00000000
  eigenvalues    EBANDS =       -90.57365070
  atomic energy  EATOM  =       197.04175453
  Solvation  Ediel_sol  =         0.00000000
  ---------------------------------------------------
  free energy    TOTEN  =       -23.90851587 eV

  energy without entropy =      -23.90851587  energy(sigma->0) =      -23.90851587


--------------------------------------------------------------------------------------------------------




--------------------------------------- Iteration      1(  12)  ---------------------------------------


    POTLOK:  cpu time    3.9337: real time    3.9432
    SETDIJ:  cpu time    0.0062: real time    0.0063
     EDDAV:  cpu time    2.2673: real time    2.2727
       DOS:  cpu time    0.0001: real time    0.0001
    CHARGE:  cpu time    0.2570: real time    0.2576
    MIXING:  cpu time    0.1079: real time    0.1081
    --------------------------------------------
      LOOP:  cpu time    6.5722: real time    6.5880

 eigenvalue-minimisations  :    32
 total energy-change (2. order) :-0.4649672E-02  (-0.6957449E-04)
 number of electron       8.0000006 magnetization 
 augmentation part        0.1859423 magnetization 

 Broyden mixing:
  rms(total) = 0.20091E-02    rms(broyden)= 0.20088E-02
  rms(prec ) = 0.41079E-02
  weight for this iteration     100.00

 eigenvalues of (default mixing * dielectric matrix)
  average eigenvalue GAMMA=   2.2191
  4.8427  3.1502  2.4238  1.8751  1.2928  0.9567  0.9921

 Free energy of the ion-electron system (eV)
  ---------------------------------------------------
  alpha Z        PSCENC =         0.09242417
  Ewald energy   TEWEN  =       164.40409849
  -Hartree energ DENC   =      -319.13214969
  -exchange      EXHF   =         0.00000000
  -V(xc)+E(xc)   XCENC  =        24.76501334
  PAW double counting   =       469.87318332     -470.66311901
  entropy T*S    EENTRO =        -0.00000000
  eigenvalues    EBANDS =       -90.29437069
  atomic energy  EATOM  =       197.04175453
  Solvation  Ediel_sol  =         0.00000000
  ---------------------------------------------------
  free energy    TOTEN  =       -23.91316554 eV

  energy without entropy =      -23.91316554  energy(sigma->0) =      -23.91316554


--------------------------------------------------------------------------------------------------------




--------------------------------------- Iteration      1(  13)  ---------------------------------------


    POTLOK:  cpu time    3.8398: real time    3.8490
    SETDIJ:  cpu time    0.0064: real time    0.0064
     EDDAV:  cpu time    1.2685: real time    1.2715
       DOS:  cpu time    0.0001: real time    0.0001
    CHARGE:  cpu time    0.2796: real time    0.2803
    MIXING:  cpu time    0.1079: real time    0.1081
    --------------------------------------------
      LOOP:  cpu time    5.5023: real time    5.5154

 eigenvalue-minimisations  :    16
 total energy-change (2. order) :-0.4045391E-02  (-0.8178182E-04)
 number of electron       8.0000006 magnetization 
 augmentation part        0.1858910 magnetization 

 Broyden mixing:
  rms(total) = 0.13700E-02    rms(broyden)= 0.13699E-02
  rms(prec ) = 0.22273E-02
  weight for this iteration     100.00

 eigenvalues of (default mixing * dielectric matrix)
  average eigenvalue GAMMA=   2.3627
  6.0266  3.8598  2.5324  2.2898  1.2696  1.0304  0.9662  0.9271

 Free energy of the ion-electron system (eV)
  ---------------------------------------------------
  alpha Z        PSCENC =         0.09242417
  Ewald energy   TEWEN  =       164.40409849
  -Hartree energ DENC   =      -319.25288450
  -exchange      EXHF   =         0.00000000
  -V(xc)+E(xc)   XCENC  =        24.76396505
  PAW double counting   =       471.34652529     -472.13642623
  entropy T*S    EENTRO =        -0.00000000
  eigenvalues    EBANDS =       -90.17666773
  atomic energy  EATOM  =       197.04175453
  Solvation  Ediel_sol  =         0.00000000
  ---------------------------------------------------
  free energy    TOTEN  =       -23.91721093 eV

  energy without entropy =      -23.91721093  energy(sigma->0) =      -23.91721093


--------------------------------------------------------------------------------------------------------




--------------------------------------- Iteration      1(  14)  ---------------------------------------


    POTLOK:  cpu time    3.8050: real time    3.8140
    SETDIJ:  cpu time    0.0062: real time    0.0062
     EDDAV:  cpu time    2.2439: real time    2.2493
       DOS:  cpu time    0.0001: real time    0.0001
    CHARGE:  cpu time    0.2649: real time    0.2655
    MIXING:  cpu time    0.1101: real time    0.1104
    --------------------------------------------
      LOOP:  cpu time    6.4302: real time    6.4455

 eigenvalue-minimisations  :    32
 total energy-change (2. order) :-0.1097956E-02  (-0.1450231E-04)
 number of electron       8.0000006 magnetization 
 augmentation part        0.1859047 magnetization 

 Broyden mixing:
  rms(total) = 0.59973E-03    rms(broyden)= 0.59969E-03
  rms(prec ) = 0.10834E-02
  weight for this iteration     100.00

 eigenvalues of (default mixing * dielectric matrix)
  average eigenvalue GAMMA=   2.5514
  6.9613  4.3092  2.9267  2.3636  2.1467  1.2767  0.9602  0.9602  1.0583

 Free energy of the ion-electron system (eV)
  ---------------------------------------------------
  alpha Z        PSCENC =         0.09242417
  Ewald energy   TEWEN  =       164.40409849
  -Hartree energ DENC   =      -319.19773512
  -exchange      EXHF   =         0.00000000
  -V(xc)+E(xc)   XCENC  =        24.75711859
  PAW double counting   =       470.74327929     -471.53293058
  entropy T*S    EENTRO =        -0.00000000
  eigenvalues    EBANDS =       -90.22631826
  atomic energy  EATOM  =       197.04175453
  Solvation  Ediel_sol  =         0.00000000
  ---------------------------------------------------
  free energy    TOTEN  =       -23.91830888 eV

  energy without entropy =      -23.91830888  energy(sigma->0) =      -23.91830888


--------------------------------------------------------------------------------------------------------




--------------------------------------- Iteration      1(  15)  ---------------------------------------


    POTLOK:  cpu time    3.6379: real time    3.6465
    SETDIJ:  cpu time    0.0067: real time    0.0068
     EDDAV:  cpu time    2.2521: real time    2.2574
       DOS:  cpu time    0.0001: real time    0.0001
    CHARGE:  cpu time    0.2685: real time    0.2692
    MIXING:  cpu time    0.1135: real time    0.1137
    --------------------------------------------
      LOOP:  cpu time    6.2788: real time    6.2938

 eigenvalue-minimisations  :    32
 total energy-change (2. order) :-0.5901654E-03  (-0.6889165E-05)
 number of electron       8.0000006 magnetization 
 augmentation part        0.1859354 magnetization 

 Broyden mixing:
  rms(total) = 0.78149E-03    rms(broyden)= 0.78123E-03
  rms(prec ) = 0.10020E-02
  weight for this iteration     100.00

 eigenvalues of (default mixing * dielectric matrix)
  average eigenvalue GAMMA=   2.5198
  7.5092  4.6133  2.8426  2.4461  2.1753  1.3155  1.3155  0.9628  1.0087  1.0087

 Free energy of the ion-electron system (eV)
  ---------------------------------------------------
  alpha Z        PSCENC =         0.09242417
  Ewald energy   TEWEN  =       164.40409849
  -Hartree energ DENC   =      -319.19965095
  -exchange      EXHF   =         0.00000000
  -V(xc)+E(xc)   XCENC  =        24.75644574
  PAW double counting   =       470.34394231     -471.13338778
  entropy T*S    EENTRO =        -0.00000000
  eigenvalues    EBANDS =       -90.22452557
  atomic energy  EATOM  =       197.04175453
  Solvation  Ediel_sol  =         0.00000000
  ---------------------------------------------------
  free energy    TOTEN  =       -23.91889905 eV

  energy without entropy =      -23.91889905  energy(sigma->0) =      -23.91889905


--------------------------------------------------------------------------------------------------------




--------------------------------------- Iteration      1(  16)  ---------------------------------------


    POTLOK:  cpu time    3.8027: real time    3.8118
    SETDIJ:  cpu time    0.0064: real time    0.0064
     EDDAV:  cpu time    1.8370: real time    1.8414
       DOS:  cpu time    0.0001: real time    0.0001
    CHARGE:  cpu time    0.2908: real time    0.2915
    MIXING:  cpu time    0.1222: real time    0.1225
    --------------------------------------------
      LOOP:  cpu time    6.0591: real time    6.0735

 eigenvalue-minimisations  :    24
 total energy-change (2. order) :-0.7573376E-04  (-0.2537511E-05)
 number of electron       8.0000006 magnetization 
 augmentation part        0.1858908 magnetization 

 Broyden mixing:
  rms(total) = 0.43525E-03    rms(broyden)= 0.43495E-03
  rms(prec ) = 0.56740E-03
  weight for this iteration     100.00

 eigenvalues of (default mixing * dielectric matrix)
  average eigenvalue GAMMA=   2.5135
  7.9541  4.7112  3.1838  2.6248  2.1647  1.5969  1.2467  1.2467  0.9469  0.9862
  0.9862

 Free energy of the ion-electron system (eV)
  ---------------------------------------------------
  alpha Z        PSCENC =         0.09242417
  Ewald energy   TEWEN  =       164.40409849
  -Hartree energ DENC   =      -319.22149804
  -exchange      EXHF   =         0.00000000
  -V(xc)+E(xc)   XCENC  =        24.75708161
  PAW double counting   =       470.43598975     -471.22576515
  entropy T*S    EENTRO =        -0.00000000
  eigenvalues    EBANDS =       -90.20306015
  atomic energy  EATOM  =       197.04175453
  Solvation  Ediel_sol  =         0.00000000
  ---------------------------------------------------
  free energy    TOTEN  =       -23.91897478 eV

  energy without entropy =      -23.91897478  energy(sigma->0) =      -23.91897478


--------------------------------------------------------------------------------------------------------




--------------------------------------- Iteration      1(  17)  ---------------------------------------


    POTLOK:  cpu time    3.8340: real time    3.8431
    SETDIJ:  cpu time    0.0068: real time    0.0068
     EDDAV:  cpu time    2.4633: real time    2.4691
       DOS:  cpu time    0.0001: real time    0.0001
    CHARGE:  cpu time    0.3117: real time    0.3124
    MIXING:  cpu time    0.1213: real time    0.1216
    --------------------------------------------
      LOOP:  cpu time    6.7371: real time    6.7531

 eigenvalue-minimisations  :    32
 total energy-change (2. order) :-0.7310688E-04  (-0.7556233E-06)
 number of electron       8.0000006 magnetization 
 augmentation part        0.1859119 magnetization 

 Broyden mixing:
  rms(total) = 0.17909E-03    rms(broyden)= 0.17898E-03
  rms(prec ) = 0.26371E-03
  weight for this iteration     100.00

 eigenvalues of (default mixing * dielectric matrix)
  average eigenvalue GAMMA=   2.5406
  8.2176  5.0745  3.7552  2.6321  2.4036  1.9941  1.2531  1.2232  0.9341  0.9876
  0.9876  1.0240

 Free energy of the ion-electron system (eV)
  ---------------------------------------------------
  alpha Z        PSCENC =         0.09242417
  Ewald energy   TEWEN  =       164.40409849
  -Hartree energ DENC   =      -319.21683388
  -exchange      EXHF   =         0.00000000
  -V(xc)+E(xc)   XCENC  =        24.75670943
  PAW double counting   =       470.37629223     -471.16591766
  entropy T*S    EENTRO =        -0.00000000
  eigenvalues    EBANDS =       -90.20757521
  atomic energy  EATOM  =       197.04175453
  Solvation  Ediel_sol  =         0.00000000
  ---------------------------------------------------
  free energy    TOTEN  =       -23.91904789 eV

  energy without entropy =      -23.91904789  energy(sigma->0) =      -23.91904789


--------------------------------------------------------------------------------------------------------




--------------------------------------- Iteration      1(  18)  ---------------------------------------


    POTLOK:  cpu time    4.0283: real time    4.0378
    SETDIJ:  cpu time    0.0068: real time    0.0068
     EDDAV:  cpu time    2.5194: real time    2.5255
       DOS:  cpu time    0.0001: real time    0.0001
    CHARGE:  cpu time    0.2827: real time    0.2834
    MIXING:  cpu time    0.1440: real time    0.1444
    --------------------------------------------
      LOOP:  cpu time    6.9813: real time    6.9980

 eigenvalue-minimisations  :    32
 total energy-change (2. order) :-0.2424802E-04  (-0.1453847E-06)
 number of electron       8.0000006 magnetization 
 augmentation part        0.1859018 magnetization 

 Broyden mixing:
  rms(total) = 0.78901E-04    rms(broyden)= 0.78869E-04
  rms(prec ) = 0.13284E-03
  weight for this iteration     100.00

 eigenvalues of (default mixing * dielectric matrix)
  average eigenvalue GAMMA=   2.6162
  8.4315  5.5136  4.0802  3.0573  2.3604  2.3604  1.8399  1.2388  1.2388  0.9389
  1.0156  0.9678  0.9678

 Free energy of the ion-electron system (eV)
  ---------------------------------------------------
  alpha Z        PSCENC =         0.09242417
  Ewald energy   TEWEN  =       164.40409849
  -Hartree energ DENC   =      -319.22891146
  -exchange      EXHF   =         0.00000000
  -V(xc)+E(xc)   XCENC  =        24.75733107
  PAW double counting   =       470.47959104     -471.26926497
  entropy T*S    EENTRO =        -0.00000000
  eigenvalues    EBANDS =       -90.19609501
  atomic energy  EATOM  =       197.04175453
  Solvation  Ediel_sol  =         0.00000000
  ---------------------------------------------------
  free energy    TOTEN  =       -23.91907214 eV

  energy without entropy =      -23.91907214  energy(sigma->0) =      -23.91907214


--------------------------------------------------------------------------------------------------------




--------------------------------------- Iteration      1(  19)  ---------------------------------------


    POTLOK:  cpu time    3.9134: real time    3.9227
    SETDIJ:  cpu time    0.0068: real time    0.0068
     EDDAV:  cpu time    1.3087: real time    1.3118
       DOS:  cpu time    0.0001: real time    0.0001
    CHARGE:  cpu time    0.3056: real time    0.3063
    MIXING:  cpu time    0.1387: real time    0.1390
    --------------------------------------------
      LOOP:  cpu time    5.6732: real time    5.6867

 eigenvalue-minimisations  :    16
 total energy-change (2. order) :-0.1675598E-04  (-0.3639305E-07)
 number of electron       8.0000006 magnetization 
 augmentation part        0.1859043 magnetization 

 Broyden mixing:
  rms(total) = 0.41229E-04    rms(broyden)= 0.41224E-04
  rms(prec ) = 0.61284E-04
  weight for this iteration     100.00

 eigenvalues of (default mixing * dielectric matrix)
  average eigenvalue GAMMA=   2.6231
  8.6160  5.9864  4.4138  3.3601  2.6192  2.2941  1.8771  1.3537  1.2711  0.9350
  1.0381  1.0381  0.9601  0.9601

 Free energy of the ion-electron system (eV)
  ---------------------------------------------------
  alpha Z        PSCENC =         0.09242417
  Ewald energy   TEWEN  =       164.40409849
  -Hartree energ DENC   =      -319.22506425
  -exchange      EXHF   =         0.00000000
  -V(xc)+E(xc)   XCENC  =        24.75692594
  PAW double counting   =       470.46822071     -471.25787916
  entropy T*S    EENTRO =        -0.00000000
  eigenvalues    EBANDS =       -90.19956933
  atomic energy  EATOM  =       197.04175453
  Solvation  Ediel_sol  =         0.00000000
  ---------------------------------------------------
  free energy    TOTEN  =       -23.91908889 eV

  energy without entropy =      -23.91908889  energy(sigma->0) =      -23.91908889


--------------------------------------------------------------------------------------------------------




--------------------------------------- Iteration      1(  20)  ---------------------------------------


    POTLOK:  cpu time    4.0684: real time    4.0781
    SETDIJ:  cpu time    0.0069: real time    0.0069
     EDDAV:  cpu time    2.5204: real time    2.5265
       DOS:  cpu time    0.0001: real time    0.0001
    CHARGE:  cpu time    0.3163: real time    0.3171
    MIXING:  cpu time    0.1394: real time    0.1397
    --------------------------------------------
      LOOP:  cpu time    7.0515: real time    7.0683

 eigenvalue-minimisations  :    32
 total energy-change (2. order) :-0.4345980E-05  (-0.4677304E-08)
 number of electron       8.0000006 magnetization 
 augmentation part        0.1859050 magnetization 

 Broyden mixing:
  rms(total) = 0.22319E-04    rms(broyden)= 0.22312E-04
  rms(prec ) = 0.35472E-04
  weight for this iteration     100.00

 eigenvalues of (default mixing * dielectric matrix)
  average eigenvalue GAMMA=   2.7434
  8.8894  6.7000  4.8882  3.5316  3.0793  2.4829  2.3052  1.8766  1.2664  1.2664
  1.0223  0.9344  0.9679  0.9700  0.9700

 Free energy of the ion-electron system (eV)
  ---------------------------------------------------
  alpha Z        PSCENC =         0.09242417
  Ewald energy   TEWEN  =       164.40409849
  -Hartree energ DENC   =      -319.22597820
  -exchange      EXHF   =         0.00000000
  -V(xc)+E(xc)   XCENC  =        24.75699118
  PAW double counting   =       470.47581346     -471.26546528
  entropy T*S    EENTRO =        -0.00000000
  eigenvalues    EBANDS =       -90.19873160
  atomic energy  EATOM  =       197.04175453
  Solvation  Ediel_sol  =         0.00000000
  ---------------------------------------------------
  free energy    TOTEN  =       -23.91909324 eV

  energy without entropy =      -23.91909324  energy(sigma->0) =      -23.91909324


--------------------------------------------------------------------------------------------------------




--------------------------------------- Iteration      1(  21)  ---------------------------------------


    POTLOK:  cpu time    4.0288: real time    4.0384
    SETDIJ:  cpu time    0.0068: real time    0.0068
     EDDAV:  cpu time    1.3066: real time    1.3097
       DOS:  cpu time    0.0001: real time    0.0001
    CHARGE:  cpu time    0.2889: real time    0.2896
    MIXING:  cpu time    0.1551: real time    0.1555
    --------------------------------------------
      LOOP:  cpu time    5.7864: real time    5.8001

 eigenvalue-minimisations  :    16
 total energy-change (2. order) :-0.4152524E-05  (-0.8551758E-08)
 number of electron       8.0000006 magnetization 
 augmentation part        0.1859046 magnetization 

 Broyden mixing:
  rms(total) = 0.11662E-04    rms(broyden)= 0.11661E-04
  rms(prec ) = 0.16746E-04
  weight for this iteration     100.00

 eigenvalues of (default mixing * dielectric matrix)
  average eigenvalue GAMMA=   2.6993
  8.9841  7.0364  4.8686  3.9314  2.8025  2.6091  2.2476  1.6992  1.6992  1.2387
  1.1932  0.9689  0.9689  1.0294  0.9393  0.9729

 Free energy of the ion-electron system (eV)
  ---------------------------------------------------
  alpha Z        PSCENC =         0.09242417
  Ewald energy   TEWEN  =       164.40409849
  -Hartree energ DENC   =      -319.22701525
  -exchange      EXHF   =         0.00000000
  -V(xc)+E(xc)   XCENC  =        24.75705108
  PAW double counting   =       470.45358877     -471.24324771
  entropy T*S    EENTRO =        -0.00000000
  eigenvalues    EBANDS =       -90.19775147
  atomic energy  EATOM  =       197.04175453
  Solvation  Ediel_sol  =         0.00000000
  ---------------------------------------------------
  free energy    TOTEN  =       -23.91909739 eV

  energy without entropy =      -23.91909739  energy(sigma->0) =      -23.91909739


--------------------------------------------------------------------------------------------------------




--------------------------------------- Iteration      1(  22)  ---------------------------------------


    POTLOK:  cpu time    4.0908: real time    4.1007
    SETDIJ:  cpu time    0.0062: real time    0.0062
     EDDAV:  cpu time    1.6912: real time    1.6952
       DOS:  cpu time    0.0001: real time    0.0001
    --------------------------------------------
      LOOP:  cpu time    5.7882: real time    5.8021

 eigenvalue-minimisations  :    24
 total energy-change (2. order) :-0.9598851E-06  (-0.6392185E-09)
 number of electron       8.0000006 magnetization 
 augmentation part        0.1859046 magnetization 

 Free energy of the ion-electron system (eV)
  ---------------------------------------------------
  alpha Z        PSCENC =         0.09242417
  Ewald energy   TEWEN  =       164.40409849
  -Hartree energ DENC   =      -319.22634135
  -exchange      EXHF   =         0.00000000
  -V(xc)+E(xc)   XCENC  =        24.75700127
  PAW double counting   =       470.45835447     -471.24801327
  entropy T*S    EENTRO =        -0.00000000
  eigenvalues    EBANDS =       -90.19837667
  atomic energy  EATOM  =       197.04175453
  Solvation  Ediel_sol  =         0.00000000
  ---------------------------------------------------
  free energy    TOTEN  =       -23.91909835 eV

  energy without entropy =      -23.91909835  energy(sigma->0) =      -23.91909835


--------------------------------------------------------------------------------------------------------




 average (electrostatic) potential at core
  the test charge radii are     0.5201  0.6991
  (the norm of the test charge is              1.0000)
       1 -41.6097       2 -41.8542       3 -41.6864       4 -41.2926       5 -58.0412



 E-fermi :  -8.5326     XC(G=0):  -0.2945     alpha+bet : -0.0804


 k-point     1 :       0.0000    0.0000    0.0000
  band No.  band energies     occupation 
      1     -16.9942      2.00000
      2      -9.7617      2.00000
      3      -9.5289      2.00000
      4      -8.8145      2.00000
      5      -0.4344      0.00000
      6       0.3122      0.00000
      7       0.5518      0.00000
      8       0.5648      0.00000


--------------------------------------------------------------------------------------------------------


 soft charge-density along one line, spin component           1
         0         1         2         3         4         5         6         7         8         9
 total charge-density along one line

 pseudopotential strength for first ion, spin component:           1
 -2.343  -4.037   0.001  -0.001  -0.001
 -4.037  -6.871   0.003  -0.004  -0.002
  0.001   0.003  -0.337  -0.002  -0.001
 -0.001  -0.004  -0.002  -0.336   0.001
 -0.001  -0.002  -0.001   0.001  -0.338
 total augmentation occupancy for first ion, spin component:           1
  3.532  -0.636  -0.264   0.308   0.138
 -0.636   0.128   0.048  -0.058  -0.026
 -0.264   0.048   0.025  -0.019  -0.009
  0.308  -0.058  -0.019   0.032   0.010
  0.138  -0.026  -0.009   0.010   0.013


------------------------ aborting loop because EDIFF is reached ----------------------------------------


    CHARGE:  cpu time    0.2710: real time    0.2716
    FORLOC:  cpu time    0.2595: real time    0.2602
    FORNL :  cpu time    0.3693: real time    0.3702
    STRESS:  cpu time    1.5319: real time    1.5355
    FORCOR:  cpu time    4.3512: real time    4.3615
    FORHAR:  cpu time    1.3930: real time    1.3962
    MIXING:  cpu time    0.1482: real time    0.1485
    OFIELD:  cpu time    0.0000: real time    0.0000

  FORCE on cell =-STRESS in cart. coord.  units (eV):
  Direction    XX          YY          ZZ          XY          YZ          ZX
  --------------------------------------------------------------------------------------
  Alpha Z     0.09242     0.09242     0.09242
  Ewald      58.42148    55.83168    50.15092    -5.87719    -6.42899    -5.02373
  Hartree   106.35808   107.59322   105.27546    -1.61924    -1.88811    -1.06650
  E(xc)     -27.21337   -27.19971   -27.26673    -0.02953    -0.03189    -0.02046
  Local    -222.17605  -222.53598  -214.60821     6.42909     7.20923     4.93972
  n-local   -16.02360   -15.80422   -16.00902    -0.00997    -0.01603     0.04719
  augment     0.10353     0.12165     0.11674     0.00751     0.00734     0.00990
  Kinetic   100.67075   100.08320   103.12547     1.48617     1.55999     0.94527
  Fock        0.00000     0.00000     0.00000     0.00000     0.00000     0.00000
  -------------------------------------------------------------------------------------
  Total       0.23324    -1.81774     0.87704     0.38683     0.41155    -0.16861
  in kB       0.14257    -1.11112     0.53611     0.23645     0.25157    -0.10306
  external pressure =       -0.14 kB  Pullay stress =        0.00 kB


 VOLUME and BASIS-vectors are now :
 -----------------------------------------------------------------------------
  energy-cutoff  :      400.00
  volume of cell :     2621.08
      direct lattice vectors                 reciprocal lattice vectors
    13.894968000  0.000000000  0.000000000     0.071968500  0.000521897 -0.000015013
    -0.100307800 13.832222000  0.000000000    -0.000000000  0.072294965  0.001590017
     0.005019800 -0.299932800 13.637354900     0.000000000 -0.000000000  0.073328003

  length of vectors
    13.894968000 13.832585699 13.640653707     0.071970394  0.072312448  0.073328003


 FORCES acting on ions
    electron-ion (+dipol)            ewald-force                    non-local-force                 convergence-correction
 -----------------------------------------------------------------------------------------------
   0.171E+02 -.324E+02 0.384E+02   -.188E+02 0.354E+02 -.425E+02   0.176E+01 -.342E+01 0.391E+01   -.474E-05 0.127E-04 -.984E-05
   0.314E+02 -.881E+01 -.438E+02   -.352E+02 0.100E+02 0.497E+02   0.351E+01 -.914E+00 -.478E+01   -.884E-05 0.200E-05 0.136E-04
   -.526E+02 -.820E+01 -.793E+01   0.586E+02 0.941E+01 0.910E+01   -.560E+01 -.751E+00 -.776E+00   0.166E-04 0.230E-06 0.299E-05
   0.257E+01 0.504E+02 0.101E+02   -.305E+01 -.541E+02 -.112E+02   0.149E+00 0.484E+01 0.847E+00   0.231E-05 -.189E-04 0.442E-06
   0.148E+01 0.291E+00 0.442E+01   -.148E+01 -.736E+00 -.509E+01   0.255E+00 -.105E+01 -.335E+00   0.788E-05 0.203E-05 0.978E-05
 -----------------------------------------------------------------------------------------------
   -.785E-01 0.129E+01 0.114E+01   0.311E-14 0.000E+00 0.000E+00   0.770E-01 -.129E+01 -.114E+01   0.132E-04 -.191E-05 0.170E-04


 POSITION                                       TOTAL-FORCE (eV/Angst)
 -----------------------------------------------------------------------------------
      6.59360      7.00315      5.27992         0.023286     -0.424989     -0.230460
      6.33805      6.50087      6.93139        -0.336422      0.299423      1.126380
      8.00596      6.49245      6.23668         0.383972      0.457726      0.395020
      6.89438      5.21860      5.85562        -0.332483      1.157508     -0.284308
      6.94730      6.33285      6.07501         0.261648     -1.489668     -1.006633
 -----------------------------------------------------------------------------------
    total drift:                               -0.001481     -0.000301      0.000535


--------------------------------------------------------------------------------------------------------



  FREE ENERGIE OF THE ION-ELECTRON SYSTEM (eV)
  ---------------------------------------------------
  free  energy   TOTEN  =       -23.91909835 eV

  energy  without entropy=      -23.91909835  energy(sigma->0) =      -23.91909835



--------------------------------------------------------------------------------------------------------


    POTLOK:  cpu time    4.1159: real time    4.1257


--------------------------------------------------------------------------------------------------------


     LOOP+:  cpu time  139.8659: real time  140.5328
    4ORBIT:  cpu time    0.0000: real time    0.0000

 total amount of memory used by VASP MPI-rank0   633643. kBytes
=======================================================================

   base      :      30000. kBytes
   nonlr-proj:       1165. kBytes
   fftplans  :     213988. kBytes
   grid      :     382371. kBytes
   one-center:         15. kBytes
   wavefun   :       6104. kBytes

  
  
 General timing and accounting informations for this job:
 ========================================================
  
                  Total CPU time used (sec):      144.468
                            User time (sec):      138.812
                          System time (sec):        5.656
                         Elapsed time (sec):      145.193
  
                   Maximum memory used (kb):      870760.
                   Average memory used (kb):           0.
  
                          Minor page faults:       477025
                          Major page faults:            0
                 Voluntary context switches:          142
