6.592669999999999675e+01 1.432479600000000062e+02 6.259649999999999892e+01 6.614679999999999893e+01 1.424938699999999869e+02 6.067119999999999891e+01 6.623621199999999476e+01 1.436473200000000077e+02 6.163067699999999860e+01 6.616700000000000159e+01 1.385910000000000082e+02 6.090670000000000073e+01 6.720850000000000080e+01 1.383619999999999948e+02 6.060499999999999687e+01
