1.160832707295202937e+00 1.813022800018708081e+00 -3.248732169008611503e+00 1.090510356073818438e-01 3.134997251541013497e-01 -1.292065320195375233e-01 -1.269932285334282263e+00 -2.129347396449621677e+00 3.378277932407290240e+00 3.965284692488860174e-01 -8.413365005864847923e-02 -1.146003508632245094e-01 -3.964799782392558480e-01 8.695852133546044804e-02 1.142611194840831706e-01
