8.063930000000000575e+01 1.023750000000000000e+02 3.654379999999999740e+01 7.589159999999999684e+01 1.015709999999999980e+02 3.859969999999999857e+01 7.691500000000000625e+01 1.003209999999999980e+02 3.793800000000000239e+01 7.716360000000000241e+01 1.011099999999999994e+02 3.960439999999999827e+01 7.791779999999999973e+01 1.018629999999999995e+02 3.841519999999999868e+01 8.092660600000000670e+01 1.023427300000000031e+02 3.549284200000000311e+01 7.703610000000000468e+01 1.013640000000000043e+02 3.853000000000000114e+01
