1.296164173193913083e+00 -1.447991941183163489e-01 -4.735085332483587095e+00 2.264967751523413675e+00 1.539111176264335912e+00 -8.621067992373873112e-01 1.167798391977613370e+00 2.246296398822759777e+00 1.247596287572860563e+00 -2.556242396315639397e-03 -7.200263926706793605e-01 -2.468564171723780509e-01 1.619480525295447615e+00 2.477362281780709719e+00 -1.731932205069173669e+00 -1.294387900717078210e+00 1.454676295734411151e-01 4.734354213528208177e+00 -5.051466750299061559e+00 -5.543411899652251229e+00 1.594030252861456942e+00
